LAMMPS (29 Aug 2024 - Development - f41f38eeba)
units        real
boundary     f f f
atom_style   full
read_data    ./data/data/al3oh9na-q0.data
Reading data file ...
  orthogonal box = (-34 -34 -34) to (34 34 34)
  1 by 1 by 1 MPI processor grid
  reading atoms ...
  24 atoms
Finding 1-2 1-3 1-4 neighbors ...
  special bond factors lj:    0        0        0       
  special bond factors coul:  0        0        0       
     0 = max # of 1-2 neighbors
     0 = max # of 1-3 neighbors
     0 = max # of 1-4 neighbors
     1 = max # of special neighbors
  special bonds CPU = 0.000 seconds
  read_data CPU = 0.002 seconds

set type 1 charge  1.296
Setting atom values ...
  3 settings made for charge
set type 2 charge -0.898
Setting atom values ...
  9 settings made for charge
set type 3 charge  0.449
Setting atom values ...
  9 settings made for charge
set type 4 charge  1.000
Setting atom values ...
  3 settings made for charge

pair_style hybrid/overlay coul/cut 15.0 sw lj/smooth/linear 5.0 gauss/cut 10.0 coord/gauss/cut 10.0
pair_coeff * * coul/cut
pair_coeff * * coul/cut
pair_coeff * * lj/smooth/linear 0 0 0
pair_coeff * * sw param_0.sw Al O H NULL
pair_coeff * * gauss/cut 0 0 1 0

pair_coeff 1 2 lj/smooth/linear 	  0.287433e-2   1.755116
pair_coeff 2 2 lj/smooth/linear 	  4.919300e-2   3.270000
pair_coeff 2 3 lj/smooth/linear 	  7.370236e-2   1.045332
pair_coeff 2 4 lj/smooth/linear 	  0.426214e-2   4.082864

pair_coeff 1 1 coord/gauss/cut 	  0.683561   2.685792   0.186946   5.044439   3.140677
pair_coeff 1 2 coord/gauss/cut 	 -7.688039   1.637367   0.222892   3.393892   1.697269
pair_coeff 2 3 gauss/cut 		 -0.474700   1.070000   0.075900   2.000000

kspace_style none

thermo_style custom pe fnorm
thermo 1

fix 1 all qeq/point 1 8.5 1.0e-6 200 param_0.qeq

group counter empty
0 atoms in group counter
group todump subtract all counter
24 atoms in group todump

run 0

CITE-CITE-CITE-CITE-CITE-CITE-CITE-CITE-CITE-CITE-CITE-CITE-CITE

Your simulation uses code contributions which should be cited:

- Type Label Framework: https://doi.org/10.1021/acs.jpcb.3c08419

@Article{Gissinger24,
 author = {Jacob R. Gissinger, Ilia Nikiforov, Yaser Afshar, Brendon Waters, Moon-ki Choi, Daniel S. Karls, Alexander Stukowski, Wonpil Im, Hendrik Heinz, Axel Kohlmeyer, and Ellad B. Tadmor},
 title = {Type Label Framework for Bonded Force Fields in LAMMPS},
 journal = {J. Phys. Chem. B},
 year =    2024,
 volume =  128,
 number =  13,
 pages =   {3282–-3297}
}

CITE-CITE-CITE-CITE-CITE-CITE-CITE-CITE-CITE-CITE-CITE-CITE-CITE

WARNING: No fixes with time integration, atoms won't move (src/verlet.cpp:60)
WARNING: Fix qeq/point group is not charge neutral, net charge = 2.847 (src/QEQ/fix_qeq.cpp:329)
Neighbor list info ...
  update: every = 1 steps, delay = 0 steps, check = yes
  max neighbors/atom: 2000, page size: 100000
  master list distance cutoff = 17
  ghost atom cutoff = 17
  binsize = 8.5, bins = 8 8 8
  6 neighbor lists, perpetual/occasional/extra = 6 0 0
  (1) pair coul/cut, perpetual, half/full from (6)
      attributes: half, newton on
      pair build: halffull/newton
      stencil: none
      bin: none
  (2) pair sw, perpetual, skip trim from (6)
      attributes: full, newton on, cut 4.075813802629246
      pair build: skip/trim
      stencil: none
      bin: none
  (3) pair lj/smooth/linear, perpetual, trim from (1)
      attributes: half, newton on, cut 7
      pair build: trim
      stencil: none
      bin: none
  (4) pair gauss/cut, perpetual, trim from (3)
      attributes: half, newton on, cut 4
      pair build: trim
      stencil: none
      bin: none
  (5) pair coord/gauss/cut, perpetual, skip trim from (6)
      attributes: full, newton on, cut 12
      pair build: skip/trim
      stencil: none
      bin: none
  (6) fix qeq/point, perpetual
      attributes: full, newton on
      pair build: full/bin
      stencil: full/bin/3d
      bin: standard
Per MPI rank memory allocation (min/avg/max) = 11.83 | 11.83 | 11.83 Mbytes
    PotEng         Fnorm     
-1927.5767      240.4421     
Loop time of 5e-07 on 1 procs for 0 steps with 24 atoms

200.0% CPU use with 1 MPI tasks x no OpenMP threads

MPI task timing breakdown:
Section |  min time  |  avg time  |  max time  |%varavg| %total
---------------------------------------------------------------
Pair    | 0          | 0          | 0          |   0.0 |  0.00
Bond    | 0          | 0          | 0          |   0.0 |  0.00
Neigh   | 0          | 0          | 0          |   0.0 |  0.00
Comm    | 0          | 0          | 0          |   0.0 |  0.00
Output  | 0          | 0          | 0          |   0.0 |  0.00
Modify  | 0          | 0          | 0          |   0.0 |  0.00
Other   |            | 5e-07      |            |       |100.00

Nlocal:             24 ave          24 max          24 min
Histogram: 1 0 0 0 0 0 0 0 0 0
Nghost:              0 ave           0 max           0 min
Histogram: 1 0 0 0 0 0 0 0 0 0
Neighs:            276 ave         276 max         276 min
Histogram: 1 0 0 0 0 0 0 0 0 0
FullNghs:          552 ave         552 max         552 min
Histogram: 1 0 0 0 0 0 0 0 0 0

Total # of neighbors = 552
Ave neighs/atom = 23
Ave special neighs/atom = 0
Neighbor list builds = 0
Dangerous builds = 0
print "al3oh9na: $(pe) $(fnorm) " append ener_0.dat screen no

clear
units        real
boundary     f f f
atom_style   full
read_data    ./data/data/aloh4toaloh5scan-q0.data
Reading data file ...
  orthogonal box = (-34 -34 -34) to (34 34 34)
  1 by 1 by 1 MPI processor grid
  reading atoms ...
  13 atoms
Finding 1-2 1-3 1-4 neighbors ...
  special bond factors lj:    0        0        0       
  special bond factors coul:  0        0        0       
     0 = max # of 1-2 neighbors
     0 = max # of 1-3 neighbors
     0 = max # of 1-4 neighbors
     1 = max # of special neighbors
  special bonds CPU = 0.000 seconds
  read_data CPU = 0.001 seconds

set type 1 charge  1.296
Setting atom values ...
  1 settings made for charge
set type 2 charge -0.898
Setting atom values ...
  5 settings made for charge
set type 3 charge  0.449
Setting atom values ...
  5 settings made for charge
set type 4 charge  1.000
Setting atom values ...
  2 settings made for charge

pair_style hybrid/overlay coul/cut 15.0 sw lj/smooth/linear 5.0 gauss/cut 10.0 coord/gauss/cut 10.0
pair_coeff * * coul/cut
pair_coeff * * coul/cut
pair_coeff * * lj/smooth/linear 0 0 0
pair_coeff * * sw param_0.sw Al O H NULL
pair_coeff * * gauss/cut 0 0 1 0

pair_coeff 1 2 lj/smooth/linear 	  0.287433e-2   1.755116
pair_coeff 2 2 lj/smooth/linear 	  4.919300e-2   3.270000
pair_coeff 2 3 lj/smooth/linear 	  7.370236e-2   1.045332
pair_coeff 2 4 lj/smooth/linear 	  0.426214e-2   4.082864

pair_coeff 1 1 coord/gauss/cut 	  0.683561   2.685792   0.186946   5.044439   3.140677
pair_coeff 1 2 coord/gauss/cut 	 -7.688039   1.637367   0.222892   3.393892   1.697269
pair_coeff 2 3 gauss/cut 		 -0.474700   1.070000   0.075900   2.000000

kspace_style none

thermo_style custom pe
thermo 1

fix 1 all qeq/point 1 8.5 1.0e-6 200 param_0.qeq

group counter id 12 13
2 atoms in group counter
group todump subtract all counter
11 atoms in group todump

dump 3 todump custom 1 aloh4toaloh5scan.FF.frc id fx fy fz
dump_modify 3 sort id
rerun ./data/scan/aloh4toaloh5scan.xyz dump x y z box no format xyz
WARNING: No fixes with time integration, atoms won't move (src/verlet.cpp:60)
WARNING: Fix qeq/point group is not charge neutral, net charge = 1.051 (src/QEQ/fix_qeq.cpp:329)
Neighbor list info ...
  update: every = 1 steps, delay = 0 steps, check = yes
  max neighbors/atom: 2000, page size: 100000
  master list distance cutoff = 17
  ghost atom cutoff = 17
  binsize = 8.5, bins = 8 8 8
  6 neighbor lists, perpetual/occasional/extra = 6 0 0
  (1) pair coul/cut, perpetual, half/full from (6)
      attributes: half, newton on
      pair build: halffull/newton
      stencil: none
      bin: none
  (2) pair sw, perpetual, skip trim from (6)
      attributes: full, newton on, cut 4.075813802629246
      pair build: skip/trim
      stencil: none
      bin: none
  (3) pair lj/smooth/linear, perpetual, trim from (1)
      attributes: half, newton on, cut 7
      pair build: trim
      stencil: none
      bin: none
  (4) pair gauss/cut, perpetual, trim from (3)
      attributes: half, newton on, cut 4
      pair build: trim
      stencil: none
      bin: none
  (5) pair coord/gauss/cut, perpetual, skip trim from (6)
      attributes: full, newton on, cut 12
      pair build: skip/trim
      stencil: none
      bin: none
  (6) fix qeq/point, perpetual
      attributes: full, newton on
      pair build: full/bin
      stencil: full/bin/3d
      bin: standard
WARNING: Fix qeq/point group is not charge neutral, net charge = 1.051 (src/QEQ/fix_qeq.cpp:329)
Per MPI rank memory allocation (min/avg/max) = 11.71 | 11.71 | 11.71 Mbytes
    PotEng    
-722.727      
-724.39617    
-721.84856    
-719.78176    
-717.82497    
-715.5264     
-707.46604    
-696.6302     
Loop time of 0.000523875 on 1 procs for 8 steps with 13 atoms


clear
units        real
boundary     p p p
atom_style   full
read_data    ./data/traj/aloh42h2obtraj-q0.data
Reading data file ...
  orthogonal box = (0 0 0) to (11.139 11.139 11.139)
  1 by 1 by 1 MPI processor grid
  reading atoms ...
  109 atoms
Finding 1-2 1-3 1-4 neighbors ...
  special bond factors lj:    0        0        0       
  special bond factors coul:  0        0        0       
     0 = max # of 1-2 neighbors
     0 = max # of 1-3 neighbors
     0 = max # of 1-4 neighbors
     1 = max # of special neighbors
  special bonds CPU = 0.000 seconds
  read_data CPU = 0.001 seconds

set type 1 charge  1.296
Setting atom values ...
  1 settings made for charge
set type 2 charge -0.898
Setting atom values ...
  37 settings made for charge
set type 3 charge  0.449
Setting atom values ...
  70 settings made for charge
set type 4 charge  1.000
Setting atom values ...
  1 settings made for charge

pair_style hybrid/overlay coul/long 8.5 sw lj/smooth/linear 5.0 gauss/cut 10.0 coord/gauss/cut 10.0
pair_coeff * * coul/long
pair_coeff * * coul/long
pair_coeff * * lj/smooth/linear 0 0 0
pair_coeff * * sw param_0.sw Al O H NULL
pair_coeff * * gauss/cut 0 0 1 0

pair_coeff 1 2 lj/smooth/linear 	  0.287433e-2   1.755116
pair_coeff 2 2 lj/smooth/linear 	  4.919300e-2   3.270000
pair_coeff 2 3 lj/smooth/linear 	  7.370236e-2   1.045332
pair_coeff 2 4 lj/smooth/linear 	  0.426214e-2   4.082864

pair_coeff 1 1 coord/gauss/cut 	  0.683561   2.685792   0.186946   5.044439   3.140677
pair_coeff 1 2 coord/gauss/cut 	 -7.688039   1.637367   0.222892   3.393892   1.697269
pair_coeff 2 3 gauss/cut 		 -0.474700   1.070000   0.075900   2.000000

kspace_style ewald 1.0e-5

thermo_style custom pe
thermo 1

fix 1 all qeq/point 1 8.5 1.0e-6 200 param_0.qeq

group counter empty
0 atoms in group counter
group todump subtract all counter
109 atoms in group todump

dump 3 todump custom 1 aloh42h2obtraj_0.FF.frc id fx fy fz
dump_modify 3 sort id
rerun ./data/traj/aloh42h2obtraj.dump dump x y z box yes
WARNING: No fixes with time integration, atoms won't move (src/verlet.cpp:60)
Ewald initialization ...
WARNING: System is not charge neutral, net charge = 0.5 (src/kspace.cpp:327)
  using 12-bit tables for long-range coulomb (src/kspace.cpp:342)
  G vector (1/distance) = 0.35327243
  estimated absolute RMS force accuracy = 0.0034647354
  estimated relative force accuracy = 1.0433948e-05
  KSpace vectors: actual max1d max3d = 128 4 364
                  kxmax kymax kzmax  = 4 4 4
WARNING: Fix qeq/point group is not charge neutral, net charge = 0.5 (src/QEQ/fix_qeq.cpp:329)
Neighbor list info ...
  update: every = 1 steps, delay = 0 steps, check = yes
  max neighbors/atom: 2000, page size: 100000
  master list distance cutoff = 12
  ghost atom cutoff = 12
  binsize = 6, bins = 2 2 2
  6 neighbor lists, perpetual/occasional/extra = 6 0 0
  (1) pair coul/long, perpetual, half/full trim from (6)
      attributes: half, newton on, cut 10.5
      pair build: halffull/trim/newton
      stencil: none
      bin: none
  (2) pair sw, perpetual, skip trim from (6)
      attributes: full, newton on, cut 4.075813802629246
      pair build: skip/trim
      stencil: none
      bin: none
  (3) pair lj/smooth/linear, perpetual, trim from (1)
      attributes: half, newton on, cut 7
      pair build: trim
      stencil: none
      bin: none
  (4) pair gauss/cut, perpetual, trim from (3)
      attributes: half, newton on, cut 4
      pair build: trim
      stencil: none
      bin: none
  (5) pair coord/gauss/cut, perpetual, skip from (6)
      attributes: full, newton on
      pair build: skip
      stencil: none
      bin: none
  (6) fix qeq/point, perpetual
      attributes: full, newton on
      pair build: full/bin
      stencil: full/bin/3d
      bin: standard
WARNING: Fix qeq/point group is not charge neutral, net charge = 0.5 (src/QEQ/fix_qeq.cpp:329)
Per MPI rank memory allocation (min/avg/max) = 19.65 | 19.65 | 19.65 Mbytes
    PotEng    
-5540.9258    
-5577.2717    
-5540.5009    
-5593.4094    
-5578.8963    
-5567.0488    
-5567.9137    
-5538.3348    
-5557.5387    
-5581.8328    
-5565.7543    
-5581.7289    
-5577.0106    
-5559.1179    
-5564.6373    
-5562.2591    
-5533.0845    
-5539.7088    
-5542.3476    
-5561.5725    
-5570.7822    
-5568.0772    
-5554.068     
-5570.3802    
-5572.8247    
-5570.719     
-5566.6522    
-5558.0267    
-5537.6098    
-5551.1424    
-5561.593     
-5577.9087    
-5580.4008    
-5562.3658    
-5560.8005    
-5565.4169    
-5570.0605    
-5579.2638    
-5553.2221    
-5579.7196    
-5560.9931    
-5566.2843    
-5563.2257    
-5557.1472    
-5573.2019    
-5556.8453    
-5559.0799    
-5541.4181    
Loop time of 0.106459 on 1 procs for 48 steps with 109 atoms


clear
units        real
boundary     f f f
atom_style   full
read_data    ./data/data/al3o3oh6na-q0.data
Reading data file ...
  orthogonal box = (-34 -34 -34) to (34 34 34)
  1 by 1 by 1 MPI processor grid
  reading atoms ...
  21 atoms
Finding 1-2 1-3 1-4 neighbors ...
  special bond factors lj:    0        0        0       
  special bond factors coul:  0        0        0       
     0 = max # of 1-2 neighbors
     0 = max # of 1-3 neighbors
     0 = max # of 1-4 neighbors
     1 = max # of special neighbors
  special bonds CPU = 0.000 seconds
  read_data CPU = 0.001 seconds

set type 1 charge  1.296
Setting atom values ...
  3 settings made for charge
set type 2 charge -0.898
Setting atom values ...
  9 settings made for charge
set type 3 charge  0.449
Setting atom values ...
  6 settings made for charge
set type 4 charge  1.000
Setting atom values ...
  3 settings made for charge

pair_style hybrid/overlay coul/cut 15.0 sw lj/smooth/linear 5.0 gauss/cut 10.0 coord/gauss/cut 10.0
pair_coeff * * coul/cut
pair_coeff * * coul/cut
pair_coeff * * lj/smooth/linear 0 0 0
pair_coeff * * sw param_0.sw Al O H NULL
pair_coeff * * gauss/cut 0 0 1 0

pair_coeff 1 2 lj/smooth/linear 	  0.287433e-2   1.755116
pair_coeff 2 2 lj/smooth/linear 	  4.919300e-2   3.270000
pair_coeff 2 3 lj/smooth/linear 	  7.370236e-2   1.045332
pair_coeff 2 4 lj/smooth/linear 	  0.426214e-2   4.082864

pair_coeff 1 1 coord/gauss/cut 	  0.683561   2.685792   0.186946   5.044439   3.140677
pair_coeff 1 2 coord/gauss/cut 	 -7.688039   1.637367   0.222892   3.393892   1.697269
pair_coeff 2 3 gauss/cut 		 -0.474700   1.070000   0.075900   2.000000

kspace_style none

thermo_style custom pe fnorm
thermo 1

fix 1 all qeq/point 1 8.5 1.0e-6 200 param_0.qeq

group counter empty
0 atoms in group counter
group todump subtract all counter
21 atoms in group todump

run 0
WARNING: No fixes with time integration, atoms won't move (src/verlet.cpp:60)
WARNING: Fix qeq/point group is not charge neutral, net charge = 1.5 (src/QEQ/fix_qeq.cpp:329)
Neighbor list info ...
  update: every = 1 steps, delay = 0 steps, check = yes
  max neighbors/atom: 2000, page size: 100000
  master list distance cutoff = 17
  ghost atom cutoff = 17
  binsize = 8.5, bins = 8 8 8
  6 neighbor lists, perpetual/occasional/extra = 6 0 0
  (1) pair coul/cut, perpetual, half/full from (6)
      attributes: half, newton on
      pair build: halffull/newton
      stencil: none
      bin: none
  (2) pair sw, perpetual, skip trim from (6)
      attributes: full, newton on, cut 4.075813802629246
      pair build: skip/trim
      stencil: none
      bin: none
  (3) pair lj/smooth/linear, perpetual, trim from (1)
      attributes: half, newton on, cut 7
      pair build: trim
      stencil: none
      bin: none
  (4) pair gauss/cut, perpetual, trim from (3)
      attributes: half, newton on, cut 4
      pair build: trim
      stencil: none
      bin: none
  (5) pair coord/gauss/cut, perpetual, skip trim from (6)
      attributes: full, newton on, cut 12
      pair build: skip/trim
      stencil: none
      bin: none
  (6) fix qeq/point, perpetual
      attributes: full, newton on
      pair build: full/bin
      stencil: full/bin/3d
      bin: standard
Per MPI rank memory allocation (min/avg/max) = 11.83 | 11.83 | 11.83 Mbytes
    PotEng         Fnorm     
-1764.7661      518.63416    
Loop time of 2.92e-07 on 1 procs for 0 steps with 21 atoms

0.0% CPU use with 1 MPI tasks x no OpenMP threads

MPI task timing breakdown:
Section |  min time  |  avg time  |  max time  |%varavg| %total
---------------------------------------------------------------
Pair    | 0          | 0          | 0          |   0.0 |  0.00
Bond    | 0          | 0          | 0          |   0.0 |  0.00
Neigh   | 0          | 0          | 0          |   0.0 |  0.00
Comm    | 0          | 0          | 0          |   0.0 |  0.00
Output  | 0          | 0          | 0          |   0.0 |  0.00
Modify  | 0          | 0          | 0          |   0.0 |  0.00
Other   |            | 2.92e-07   |            |       |100.00

Nlocal:             21 ave          21 max          21 min
Histogram: 1 0 0 0 0 0 0 0 0 0
Nghost:              0 ave           0 max           0 min
Histogram: 1 0 0 0 0 0 0 0 0 0
Neighs:            210 ave         210 max         210 min
Histogram: 1 0 0 0 0 0 0 0 0 0
FullNghs:          420 ave         420 max         420 min
Histogram: 1 0 0 0 0 0 0 0 0 0

Total # of neighbors = 420
Ave neighs/atom = 20
Ave special neighs/atom = 0
Neighbor list builds = 0
Dangerous builds = 0
print "al3o3oh6na: $(pe) $(fnorm) " append ener_0.dat screen no

clear
units        real
boundary     f f f
atom_style   full
read_data    ./data/data/aloh4na-q0.data
Reading data file ...
  orthogonal box = (-34 -34 -34) to (34 34 34)
  1 by 1 by 1 MPI processor grid
  reading atoms ...
  10 atoms
Finding 1-2 1-3 1-4 neighbors ...
  special bond factors lj:    0        0        0       
  special bond factors coul:  0        0        0       
     0 = max # of 1-2 neighbors
     0 = max # of 1-3 neighbors
     0 = max # of 1-4 neighbors
     1 = max # of special neighbors
  special bonds CPU = 0.000 seconds
  read_data CPU = 0.001 seconds

set type 1 charge  1.296
Setting atom values ...
  1 settings made for charge
set type 2 charge -0.898
Setting atom values ...
  4 settings made for charge
set type 3 charge  0.449
Setting atom values ...
  4 settings made for charge
set type 4 charge  1.000
Setting atom values ...
  1 settings made for charge

pair_style hybrid/overlay coul/cut 15.0 sw lj/smooth/linear 5.0 gauss/cut 10.0 coord/gauss/cut 10.0
pair_coeff * * coul/cut
pair_coeff * * coul/cut
pair_coeff * * lj/smooth/linear 0 0 0
pair_coeff * * sw param_0.sw Al O H NULL
pair_coeff * * gauss/cut 0 0 1 0

pair_coeff 1 2 lj/smooth/linear 	  0.287433e-2   1.755116
pair_coeff 2 2 lj/smooth/linear 	  4.919300e-2   3.270000
pair_coeff 2 3 lj/smooth/linear 	  7.370236e-2   1.045332
pair_coeff 2 4 lj/smooth/linear 	  0.426214e-2   4.082864

pair_coeff 1 1 coord/gauss/cut 	  0.683561   2.685792   0.186946   5.044439   3.140677
pair_coeff 1 2 coord/gauss/cut 	 -7.688039   1.637367   0.222892   3.393892   1.697269
pair_coeff 2 3 gauss/cut 		 -0.474700   1.070000   0.075900   2.000000

kspace_style none

thermo_style custom pe fnorm
thermo 1

fix 1 all qeq/point 1 8.5 1.0e-6 200 param_0.qeq

group counter empty
0 atoms in group counter
group todump subtract all counter
10 atoms in group todump

compute 1 all property/atom q
dump 1 todump custom 1 aloh4na_0.q id c_1
dump_modify 1 sort id

run 0
WARNING: No fixes with time integration, atoms won't move (src/verlet.cpp:60)
WARNING: Fix qeq/point group is not charge neutral, net charge = 0.5 (src/QEQ/fix_qeq.cpp:329)
Neighbor list info ...
  update: every = 1 steps, delay = 0 steps, check = yes
  max neighbors/atom: 2000, page size: 100000
  master list distance cutoff = 17
  ghost atom cutoff = 17
  binsize = 8.5, bins = 8 8 8
  6 neighbor lists, perpetual/occasional/extra = 6 0 0
  (1) pair coul/cut, perpetual, half/full from (6)
      attributes: half, newton on
      pair build: halffull/newton
      stencil: none
      bin: none
  (2) pair sw, perpetual, skip trim from (6)
      attributes: full, newton on, cut 4.075813802629246
      pair build: skip/trim
      stencil: none
      bin: none
  (3) pair lj/smooth/linear, perpetual, trim from (1)
      attributes: half, newton on, cut 7
      pair build: trim
      stencil: none
      bin: none
  (4) pair gauss/cut, perpetual, trim from (3)
      attributes: half, newton on, cut 4
      pair build: trim
      stencil: none
      bin: none
  (5) pair coord/gauss/cut, perpetual, skip trim from (6)
      attributes: full, newton on, cut 12
      pair build: skip/trim
      stencil: none
      bin: none
  (6) fix qeq/point, perpetual
      attributes: full, newton on
      pair build: full/bin
      stencil: full/bin/3d
      bin: standard
Per MPI rank memory allocation (min/avg/max) = 11.83 | 11.83 | 11.83 Mbytes
    PotEng         Fnorm     
-736.45799      298.50174    
Loop time of 5.83e-07 on 1 procs for 0 steps with 10 atoms

0.0% CPU use with 1 MPI tasks x no OpenMP threads

MPI task timing breakdown:
Section |  min time  |  avg time  |  max time  |%varavg| %total
---------------------------------------------------------------
Pair    | 0          | 0          | 0          |   0.0 |  0.00
Bond    | 0          | 0          | 0          |   0.0 |  0.00
Neigh   | 0          | 0          | 0          |   0.0 |  0.00
Comm    | 0          | 0          | 0          |   0.0 |  0.00
Output  | 0          | 0          | 0          |   0.0 |  0.00
Modify  | 0          | 0          | 0          |   0.0 |  0.00
Other   |            | 5.83e-07   |            |       |100.00

Nlocal:             10 ave          10 max          10 min
Histogram: 1 0 0 0 0 0 0 0 0 0
Nghost:              0 ave           0 max           0 min
Histogram: 1 0 0 0 0 0 0 0 0 0
Neighs:             45 ave          45 max          45 min
Histogram: 1 0 0 0 0 0 0 0 0 0
FullNghs:           90 ave          90 max          90 min
Histogram: 1 0 0 0 0 0 0 0 0 0

Total # of neighbors = 90
Ave neighs/atom = 9
Ave special neighs/atom = 0
Neighbor list builds = 0
Dangerous builds = 0
print "aloh4na: $(pe) $(fnorm) " append ener_0.dat screen no

clear
units        real
boundary     p p p
atom_style   full
read_data    ./data/traj/NaOH30wPTtraj-q0.data
Reading data file ...
  orthogonal box = (0 0 0) to (9.4944313 9.4944313 9.4944313)
  1 by 1 by 1 MPI processor grid
  reading atoms ...
  93 atoms
Finding 1-2 1-3 1-4 neighbors ...
  special bond factors lj:    0        0        0       
  special bond factors coul:  0        0        0       
     0 = max # of 1-2 neighbors
     0 = max # of 1-3 neighbors
     0 = max # of 1-4 neighbors
     1 = max # of special neighbors
  special bonds CPU = 0.000 seconds
  read_data CPU = 0.001 seconds

set type 1 charge  1.296
Setting atom values ...
  0 settings made for charge
set type 2 charge -0.898
Setting atom values ...
  31 settings made for charge
set type 3 charge  0.449
Setting atom values ...
  61 settings made for charge
set type 4 charge  1.000
Setting atom values ...
  1 settings made for charge

pair_style hybrid/overlay coul/long 8.5 sw lj/smooth/linear 5.0 gauss/cut 10.0 coord/gauss/cut 10.0
pair_coeff * * coul/long
pair_coeff * * coul/long
pair_coeff * * lj/smooth/linear 0 0 0
pair_coeff * * sw param_0.sw Al O H NULL
pair_coeff * * gauss/cut 0 0 1 0

pair_coeff 1 2 lj/smooth/linear 	  0.287433e-2   1.755116
pair_coeff 2 2 lj/smooth/linear 	  4.919300e-2   3.270000
pair_coeff 2 3 lj/smooth/linear 	  7.370236e-2   1.045332
pair_coeff 2 4 lj/smooth/linear 	  0.426214e-2   4.082864

pair_coeff 1 1 coord/gauss/cut 	  0.683561   2.685792   0.186946   5.044439   3.140677
pair_coeff 1 2 coord/gauss/cut 	 -7.688039   1.637367   0.222892   3.393892   1.697269
pair_coeff 2 3 gauss/cut 		 -0.474700   1.070000   0.075900   2.000000

kspace_style ewald 1.0e-5

thermo_style custom pe
thermo 1

fix 1 all qeq/point 1 8.5 1.0e-6 200 param_0.qeq

group counter empty
0 atoms in group counter
group todump subtract all counter
93 atoms in group todump

dump 3 todump custom 1 NaOH30wPTtraj_0.FF.frc id fx fy fz
dump_modify 3 sort id
rerun ./data/traj/NaOH30wPTtraj.dump dump x y z box yes
WARNING: No fixes with time integration, atoms won't move (src/verlet.cpp:60)
Ewald initialization ...
WARNING: System is not charge neutral, net charge = 0.551 (src/kspace.cpp:327)
  using 12-bit tables for long-range coulomb (src/kspace.cpp:342)
  G vector (1/distance) = 0.35565685
  estimated absolute RMS force accuracy = 0.0033208579
  estimated relative force accuracy = 1.0000665e-05
  KSpace vectors: actual max1d max3d = 128 4 364
                  kxmax kymax kzmax  = 4 4 4
WARNING: Fix qeq/point group is not charge neutral, net charge = 0.551 (src/QEQ/fix_qeq.cpp:329)
Neighbor list info ...
  update: every = 1 steps, delay = 0 steps, check = yes
  max neighbors/atom: 2000, page size: 100000
  master list distance cutoff = 12
  ghost atom cutoff = 12
  binsize = 6, bins = 2 2 2
  6 neighbor lists, perpetual/occasional/extra = 6 0 0
  (1) pair coul/long, perpetual, half/full trim from (6)
      attributes: half, newton on, cut 10.5
      pair build: halffull/trim/newton
      stencil: none
      bin: none
  (2) pair sw, perpetual, skip trim from (6)
      attributes: full, newton on, cut 4.075813802629246
      pair build: skip/trim
      stencil: none
      bin: none
  (3) pair lj/smooth/linear, perpetual, trim from (1)
      attributes: half, newton on, cut 7
      pair build: trim
      stencil: none
      bin: none
  (4) pair gauss/cut, perpetual, trim from (3)
      attributes: half, newton on, cut 4
      pair build: trim
      stencil: none
      bin: none
  (5) pair coord/gauss/cut, perpetual, skip from (6)
      attributes: full, newton on
      pair build: skip
      stencil: none
      bin: none
  (6) fix qeq/point, perpetual
      attributes: full, newton on
      pair build: full/bin
      stencil: full/bin/3d
      bin: standard
WARNING: Fix qeq/point group is not charge neutral, net charge = 0.551 (src/QEQ/fix_qeq.cpp:329)
Per MPI rank memory allocation (min/avg/max) = 19.77 | 19.77 | 19.77 Mbytes
    PotEng    
-4516.7562    
-4520.3566    
-4531.7601    
-4536.1781    
-4541.3266    
-4528.098     
-4522.3802    
-4514.1008    
-4516.7612    
-4523.3533    
-4545.71      
-4548.8304    
-4548.5737    
-4542.2234    
-4537.5432    
-4529.8388    
-4538.7608    
-4557.3101    
-4552.2484    
-4546.8439    
-4542.5812    
-4533.7472    
-4524.642     
-4512.7406    
-4518.3273    
-4511.7272    
-4507.2142    
-4515.8767    
-4533.7233    
-4536.5033    
-4541.6691    
-4539.8885    
-4539.5289    
-4531.6126    
-4527.6742    
-4526.0005    
-4517.1016    
-4508.9913    
-4508.664     
-4516.7522    
-4531.4267    
-4538.0956    
-4543.1787    
-4536.7419    
-4520.0358    
-4516.1946    
-4515.6887    
-4523.4776    
Loop time of 0.115593 on 1 procs for 48 steps with 93 atoms


clear
units        real
boundary     p p p
atom_style   full
read_data    ./data/traj/32wPTtraj-q0.data
Reading data file ...
  orthogonal box = (0 0 0) to (9.85 9.85 9.85)
  1 by 1 by 1 MPI processor grid
  reading atoms ...
  96 atoms
Finding 1-2 1-3 1-4 neighbors ...
  special bond factors lj:    0        0        0       
  special bond factors coul:  0        0        0       
     0 = max # of 1-2 neighbors
     0 = max # of 1-3 neighbors
     0 = max # of 1-4 neighbors
     1 = max # of special neighbors
  special bonds CPU = 0.000 seconds
  read_data CPU = 0.001 seconds

set type 1 charge  1.296
Setting atom values ...
  0 settings made for charge
set type 2 charge -0.898
Setting atom values ...
  32 settings made for charge
set type 3 charge  0.449
Setting atom values ...
  64 settings made for charge
set type 4 charge  1.000
Setting atom values ...
  0 settings made for charge

pair_style hybrid/overlay coul/long 8.5 sw lj/smooth/linear 5.0 gauss/cut 10.0 coord/gauss/cut 10.0
pair_coeff * * coul/long
pair_coeff * * coul/long
pair_coeff * * lj/smooth/linear 0 0 0
pair_coeff * * sw param_0.sw Al O H NULL
pair_coeff * * gauss/cut 0 0 1 0

pair_coeff 1 2 lj/smooth/linear 	  0.287433e-2   1.755116
pair_coeff 2 2 lj/smooth/linear 	  4.919300e-2   3.270000
pair_coeff 2 3 lj/smooth/linear 	  7.370236e-2   1.045332
pair_coeff 2 4 lj/smooth/linear 	  0.426214e-2   4.082864

pair_coeff 1 1 coord/gauss/cut 	  0.683561   2.685792   0.186946   5.044439   3.140677
pair_coeff 1 2 coord/gauss/cut 	 -7.688039   1.637367   0.222892   3.393892   1.697269
pair_coeff 2 3 gauss/cut 		 -0.474700   1.070000   0.075900   2.000000

kspace_style ewald 1.0e-5

thermo_style custom pe
thermo 1

fix 1 all qeq/point 1 8.5 1.0e-6 200 param_0.qeq

group counter empty
0 atoms in group counter
group todump subtract all counter
96 atoms in group todump

dump 3 todump custom 1 32wPTtraj_0.FF.frc id fx fy fz
dump_modify 3 sort id
rerun ./data/traj/32wPTtraj.dump dump x y z box yes
WARNING: No fixes with time integration, atoms won't move (src/verlet.cpp:60)
Ewald initialization ...
  using 12-bit tables for long-range coulomb (src/kspace.cpp:342)
  G vector (1/distance) = 0.35448074
  estimated absolute RMS force accuracy = 0.0033213357
  estimated relative force accuracy = 1.0002104e-05
  KSpace vectors: actual max1d max3d = 128 4 364
                  kxmax kymax kzmax  = 4 4 4
Neighbor list info ...
  update: every = 1 steps, delay = 0 steps, check = yes
  max neighbors/atom: 2000, page size: 100000
  master list distance cutoff = 12
  ghost atom cutoff = 12
  binsize = 6, bins = 2 2 2
  6 neighbor lists, perpetual/occasional/extra = 6 0 0
  (1) pair coul/long, perpetual, half/full trim from (6)
      attributes: half, newton on, cut 10.5
      pair build: halffull/trim/newton
      stencil: none
      bin: none
  (2) pair sw, perpetual, skip trim from (6)
      attributes: full, newton on, cut 4.075813802629246
      pair build: skip/trim
      stencil: none
      bin: none
  (3) pair lj/smooth/linear, perpetual, trim from (1)
      attributes: half, newton on, cut 7
      pair build: trim
      stencil: none
      bin: none
  (4) pair gauss/cut, perpetual, trim from (3)
      attributes: half, newton on, cut 4
      pair build: trim
      stencil: none
      bin: none
  (5) pair coord/gauss/cut, perpetual, skip from (6)
      attributes: full, newton on
      pair build: skip
      stencil: none
      bin: none
  (6) fix qeq/point, perpetual
      attributes: full, newton on
      pair build: full/bin
      stencil: full/bin/3d
      bin: standard
Per MPI rank memory allocation (min/avg/max) = 19.73 | 19.73 | 19.73 Mbytes
    PotEng    
-4672.1123    
-4680.1537    
-4664.4514    
-4677.8765    
-4654.1948    
-4671.1016    
-4669.0875    
-4655.6039    
-4657.7996    
-4663.8771    
-4647.2396    
-4649.7939    
-4656.0299    
-4664.4083    
-4640.1538    
-4650.3146    
-4659.2659    
-4655.6069    
-4642.8134    
-4635.7641    
Loop time of 0.0455359 on 1 procs for 20 steps with 96 atoms


clear
units        real
boundary     p p p
atom_style   full
read_data    ./data/data/gib110-q0.data
Reading data file ...
  triclinic box = (-0.2225 0.0135 -0.004352) to (8.5265 10.4285 9.645352) with tilt (0 -3.512205 0)
  1 by 1 by 1 MPI processor grid
  reading atoms ...
  112 atoms
Finding 1-2 1-3 1-4 neighbors ...
  special bond factors lj:    0        0        0       
  special bond factors coul:  0        0        0       
     0 = max # of 1-2 neighbors
     0 = max # of 1-3 neighbors
     0 = max # of 1-4 neighbors
     1 = max # of special neighbors
  special bonds CPU = 0.000 seconds
  read_data CPU = 0.001 seconds

set type 1 charge  1.296
Setting atom values ...
  16 settings made for charge
set type 2 charge -0.898
Setting atom values ...
  48 settings made for charge
set type 3 charge  0.449
Setting atom values ...
  48 settings made for charge
set type 4 charge  1.000
Setting atom values ...
  0 settings made for charge

pair_style hybrid/overlay coul/long 8.5 sw lj/smooth/linear 5.0 gauss/cut 10.0 coord/gauss/cut 10.0
pair_coeff * * coul/long
pair_coeff * * coul/long
pair_coeff * * lj/smooth/linear 0 0 0
pair_coeff * * sw param_0.sw Al O H NULL
pair_coeff * * gauss/cut 0 0 1 0

pair_coeff 1 2 lj/smooth/linear 	  0.287433e-2   1.755116
pair_coeff 2 2 lj/smooth/linear 	  4.919300e-2   3.270000
pair_coeff 2 3 lj/smooth/linear 	  7.370236e-2   1.045332
pair_coeff 2 4 lj/smooth/linear 	  0.426214e-2   4.082864

pair_coeff 1 1 coord/gauss/cut 	  0.683561   2.685792   0.186946   5.044439   3.140677
pair_coeff 1 2 coord/gauss/cut 	 -7.688039   1.637367   0.222892   3.393892   1.697269
pair_coeff 2 3 gauss/cut 		 -0.474700   1.070000   0.075900   2.000000

kspace_style ewald 1.0e-5

thermo_style custom pe fnorm
thermo 1

fix 1 all qeq/point 1 8.5 1.0e-6 200 param_0.qeq

group counter empty
0 atoms in group counter
group todump subtract all counter
112 atoms in group todump

run 0
WARNING: No fixes with time integration, atoms won't move (src/verlet.cpp:60)
Ewald initialization ...
WARNING: System is not charge neutral, net charge = -0.816 (src/kspace.cpp:327)
  using 12-bit tables for long-range coulomb (src/kspace.cpp:342)
  G vector (1/distance) = 0.36656371
  estimated absolute RMS force accuracy = 0.0033649731
  estimated relative force accuracy = 1.0133517e-05
  KSpace vectors: actual max1d max3d = 174 5 665
                  kxmax kymax kzmax  = 4 4 5
WARNING: Fix qeq/point group is not charge neutral, net charge = -0.816 (src/QEQ/fix_qeq.cpp:329)
Neighbor list info ...
  update: every = 1 steps, delay = 0 steps, check = yes
  max neighbors/atom: 2000, page size: 100000
  master list distance cutoff = 12
  ghost atom cutoff = 12
  binsize = 6, bins = 3 2 2
  6 neighbor lists, perpetual/occasional/extra = 6 0 0
  (1) pair coul/long, perpetual, half/full trim from (6)
      attributes: half, newton on, cut 10.5
      pair build: halffull/trim/newton/tri
      stencil: none
      bin: none
  (2) pair sw, perpetual, skip trim from (6)
      attributes: full, newton on, cut 4.075813802629246
      pair build: skip/trim
      stencil: none
      bin: none
  (3) pair lj/smooth/linear, perpetual, trim from (1)
      attributes: half, newton on, cut 7
      pair build: trim
      stencil: none
      bin: none
  (4) pair gauss/cut, perpetual, trim from (3)
      attributes: half, newton on, cut 4
      pair build: trim
      stencil: none
      bin: none
  (5) pair coord/gauss/cut, perpetual, skip from (6)
      attributes: full, newton on
      pair build: skip
      stencil: none
      bin: none
  (6) fix qeq/point, perpetual
      attributes: full, newton on
      pair build: full/bin
      stencil: full/bin/3d
      bin: standard
Per MPI rank memory allocation (min/avg/max) = 21.85 | 21.85 | 21.85 Mbytes
    PotEng         Fnorm     
-9831.9047      428.45503    
Loop time of 3.34e-07 on 1 procs for 0 steps with 112 atoms

0.0% CPU use with 1 MPI tasks x no OpenMP threads

MPI task timing breakdown:
Section |  min time  |  avg time  |  max time  |%varavg| %total
---------------------------------------------------------------
Pair    | 0          | 0          | 0          |   0.0 |  0.00
Bond    | 0          | 0          | 0          |   0.0 |  0.00
Kspace  | 0          | 0          | 0          |   0.0 |  0.00
Neigh   | 0          | 0          | 0          |   0.0 |  0.00
Comm    | 0          | 0          | 0          |   0.0 |  0.00
Output  | 0          | 0          | 0          |   0.0 |  0.00
Modify  | 0          | 0          | 0          |   0.0 |  0.00
Other   |            | 3.34e-07   |            |       |100.00

Nlocal:            112 ave         112 max         112 min
Histogram: 1 0 0 0 0 0 0 0 0 0
Nghost:           4969 ave        4969 max        4969 min
Histogram: 1 0 0 0 0 0 0 0 0 0
Neighs:          34756 ave       34756 max       34756 min
Histogram: 1 0 0 0 0 0 0 0 0 0
FullNghs:        74352 ave       74352 max       74352 min
Histogram: 1 0 0 0 0 0 0 0 0 0

Total # of neighbors = 74352
Ave neighs/atom = 663.85714
Ave special neighs/atom = 0
Neighbor list builds = 0
Dangerous builds = 0
print "gib110: $(pe) $(fnorm) " append ener_0.dat screen no

clear
units        real
boundary     f f f
atom_style   full
read_data    ./data/data/Na-q0.data
Reading data file ...
  orthogonal box = (-34 -34 -34) to (34 34 34)
  1 by 1 by 1 MPI processor grid
  reading atoms ...
  3 atoms
Finding 1-2 1-3 1-4 neighbors ...
  special bond factors lj:    0        0        0       
  special bond factors coul:  0        0        0       
     0 = max # of 1-2 neighbors
     0 = max # of 1-3 neighbors
     0 = max # of 1-4 neighbors
     1 = max # of special neighbors
  special bonds CPU = 0.000 seconds
  read_data CPU = 0.001 seconds

set type 1 charge  1.296
Setting atom values ...
  0 settings made for charge
set type 2 charge -0.898
Setting atom values ...
  1 settings made for charge
set type 3 charge  0.449
Setting atom values ...
  1 settings made for charge
set type 4 charge  1.000
Setting atom values ...
  1 settings made for charge

pair_style hybrid/overlay coul/cut 15.0 sw lj/smooth/linear 5.0 gauss/cut 10.0 coord/gauss/cut 10.0
pair_coeff * * coul/cut
pair_coeff * * coul/cut
pair_coeff * * lj/smooth/linear 0 0 0
pair_coeff * * sw param_0.sw Al O H NULL
pair_coeff * * gauss/cut 0 0 1 0

pair_coeff 1 2 lj/smooth/linear 	  0.287433e-2   1.755116
pair_coeff 2 2 lj/smooth/linear 	  4.919300e-2   3.270000
pair_coeff 2 3 lj/smooth/linear 	  7.370236e-2   1.045332
pair_coeff 2 4 lj/smooth/linear 	  0.426214e-2   4.082864

pair_coeff 1 1 coord/gauss/cut 	  0.683561   2.685792   0.186946   5.044439   3.140677
pair_coeff 1 2 coord/gauss/cut 	 -7.688039   1.637367   0.222892   3.393892   1.697269
pair_coeff 2 3 gauss/cut 		 -0.474700   1.070000   0.075900   2.000000

kspace_style none

thermo_style custom pe fnorm
thermo 1

fix 1 all qeq/point 1 8.5 1.0e-6 200 param_0.qeq

group counter id 2 3
2 atoms in group counter
group todump subtract all counter
1 atoms in group todump

compute 1 all property/atom q
dump 1 todump custom 1 Na_0.q id c_1
dump_modify 1 sort id

run 0
WARNING: No fixes with time integration, atoms won't move (src/verlet.cpp:60)
WARNING: Fix qeq/point group is not charge neutral, net charge = 0.551 (src/QEQ/fix_qeq.cpp:329)
Neighbor list info ...
  update: every = 1 steps, delay = 0 steps, check = yes
  max neighbors/atom: 2000, page size: 100000
  master list distance cutoff = 17
  ghost atom cutoff = 17
  binsize = 8.5, bins = 8 8 8
  6 neighbor lists, perpetual/occasional/extra = 6 0 0
  (1) pair coul/cut, perpetual, half/full from (6)
      attributes: half, newton on
      pair build: halffull/newton
      stencil: none
      bin: none
  (2) pair sw, perpetual, skip trim from (6)
      attributes: full, newton on, cut 4.075813802629246
      pair build: skip/trim
      stencil: none
      bin: none
  (3) pair lj/smooth/linear, perpetual, trim from (1)
      attributes: half, newton on, cut 7
      pair build: trim
      stencil: none
      bin: none
  (4) pair gauss/cut, perpetual, trim from (3)
      attributes: half, newton on, cut 4
      pair build: trim
      stencil: none
      bin: none
  (5) pair coord/gauss/cut, perpetual, skip trim from (6)
      attributes: full, newton on, cut 12
      pair build: skip/trim
      stencil: none
      bin: none
  (6) fix qeq/point, perpetual
      attributes: full, newton on
      pair build: full/bin
      stencil: full/bin/3d
      bin: standard
Per MPI rank memory allocation (min/avg/max) = 11.83 | 11.83 | 11.83 Mbytes
    PotEng         Fnorm     
-64.889367      56.350808    
Loop time of 2.91e-07 on 1 procs for 0 steps with 3 atoms

0.0% CPU use with 1 MPI tasks x no OpenMP threads

MPI task timing breakdown:
Section |  min time  |  avg time  |  max time  |%varavg| %total
---------------------------------------------------------------
Pair    | 0          | 0          | 0          |   0.0 |  0.00
Bond    | 0          | 0          | 0          |   0.0 |  0.00
Neigh   | 0          | 0          | 0          |   0.0 |  0.00
Comm    | 0          | 0          | 0          |   0.0 |  0.00
Output  | 0          | 0          | 0          |   0.0 |  0.00
Modify  | 0          | 0          | 0          |   0.0 |  0.00
Other   |            | 2.91e-07   |            |       |100.00

Nlocal:              3 ave           3 max           3 min
Histogram: 1 0 0 0 0 0 0 0 0 0
Nghost:              0 ave           0 max           0 min
Histogram: 1 0 0 0 0 0 0 0 0 0
Neighs:              1 ave           1 max           1 min
Histogram: 1 0 0 0 0 0 0 0 0 0
FullNghs:            2 ave           2 max           2 min
Histogram: 1 0 0 0 0 0 0 0 0 0

Total # of neighbors = 2
Ave neighs/atom = 0.66666667
Ave special neighs/atom = 0
Neighbor list builds = 0
Dangerous builds = 0
print "Na: $(pe) $(fnorm) " append ener_0.dat screen no

clear
units        real
boundary     p p p
atom_style   full
read_data    ./data/traj/2m1ctraj-q0.data
Reading data file ...
  orthogonal box = (0 0 0) to (10.427 10.427 10.427)
  1 by 1 by 1 MPI processor grid
  reading atoms ...
  110 atoms
Finding 1-2 1-3 1-4 neighbors ...
  special bond factors lj:    0        0        0       
  special bond factors coul:  0        0        0       
     0 = max # of 1-2 neighbors
     0 = max # of 1-3 neighbors
     0 = max # of 1-4 neighbors
     1 = max # of special neighbors
  special bonds CPU = 0.000 seconds
  read_data CPU = 0.001 seconds

set type 1 charge  1.296
Setting atom values ...
  2 settings made for charge
set type 2 charge -0.898
Setting atom values ...
  38 settings made for charge
set type 3 charge  0.449
Setting atom values ...
  68 settings made for charge
set type 4 charge  1.000
Setting atom values ...
  2 settings made for charge

pair_style hybrid/overlay coul/long 8.5 sw lj/smooth/linear 5.0 gauss/cut 10.0 coord/gauss/cut 10.0
pair_coeff * * coul/long
pair_coeff * * coul/long
pair_coeff * * lj/smooth/linear 0 0 0
pair_coeff * * sw param_0.sw Al O H NULL
pair_coeff * * gauss/cut 0 0 1 0

pair_coeff 1 2 lj/smooth/linear 	  0.287433e-2   1.755116
pair_coeff 2 2 lj/smooth/linear 	  4.919300e-2   3.270000
pair_coeff 2 3 lj/smooth/linear 	  7.370236e-2   1.045332
pair_coeff 2 4 lj/smooth/linear 	  0.426214e-2   4.082864

pair_coeff 1 1 coord/gauss/cut 	  0.683561   2.685792   0.186946   5.044439   3.140677
pair_coeff 1 2 coord/gauss/cut 	 -7.688039   1.637367   0.222892   3.393892   1.697269
pair_coeff 2 3 gauss/cut 		 -0.474700   1.070000   0.075900   2.000000

kspace_style ewald 1.0e-5

thermo_style custom pe
thermo 1

fix 1 all qeq/point 1 8.5 1.0e-6 200 param_0.qeq

group counter empty
0 atoms in group counter
group todump subtract all counter
110 atoms in group todump

dump 3 todump custom 1 2m1ctraj_0.FF.frc id fx fy fz
dump_modify 3 sort id
rerun ./data/traj/2m1ctraj.dump dump x y z box yes
WARNING: No fixes with time integration, atoms won't move (src/verlet.cpp:60)
Ewald initialization ...
WARNING: System is not charge neutral, net charge = 1 (src/kspace.cpp:327)
  using 12-bit tables for long-range coulomb (src/kspace.cpp:342)
  G vector (1/distance) = 0.35636451
  estimated absolute RMS force accuracy = 0.0033368602
  estimated relative force accuracy = 1.0048856e-05
  KSpace vectors: actual max1d max3d = 128 4 364
                  kxmax kymax kzmax  = 4 4 4
WARNING: Fix qeq/point group is not charge neutral, net charge = 1 (src/QEQ/fix_qeq.cpp:329)
Neighbor list info ...
  update: every = 1 steps, delay = 0 steps, check = yes
  max neighbors/atom: 2000, page size: 100000
  master list distance cutoff = 12
  ghost atom cutoff = 12
  binsize = 6, bins = 2 2 2
  6 neighbor lists, perpetual/occasional/extra = 6 0 0
  (1) pair coul/long, perpetual, half/full trim from (6)
      attributes: half, newton on, cut 10.5
      pair build: halffull/trim/newton
      stencil: none
      bin: none
  (2) pair sw, perpetual, skip trim from (6)
      attributes: full, newton on, cut 4.075813802629246
      pair build: skip/trim
      stencil: none
      bin: none
  (3) pair lj/smooth/linear, perpetual, trim from (1)
      attributes: half, newton on, cut 7
      pair build: trim
      stencil: none
      bin: none
  (4) pair gauss/cut, perpetual, trim from (3)
      attributes: half, newton on, cut 4
      pair build: trim
      stencil: none
      bin: none
  (5) pair coord/gauss/cut, perpetual, skip from (6)
      attributes: full, newton on
      pair build: skip
      stencil: none
      bin: none
  (6) fix qeq/point, perpetual
      attributes: full, newton on
      pair build: full/bin
      stencil: full/bin/3d
      bin: standard
WARNING: Fix qeq/point group is not charge neutral, net charge = 1 (src/QEQ/fix_qeq.cpp:329)
Per MPI rank memory allocation (min/avg/max) = 19.82 | 19.82 | 19.82 Mbytes
    PotEng    
-5904.7224    
-5901.9813    
-5894.3897    
-5884.4624    
-5859.7433    
-5857.8837    
-5884.5144    
-5872.0474    
-5890.8663    
-5904.0587    
-5881.7098    
-5892.7847    
-5908.9187    
-5896.0442    
-5909.1499    
-5921.6244    
-5884.3794    
-5878.8787    
-5883.1893    
-5863.6453    
-5874.2105    
-5889.3412    
-5892.3686    
-5909.6742    
-5898.348     
-5874.3643    
-5877.0331    
-5874.7641    
-5886.914     
-5911.4864    
-5936.8151    
-5943.7004    
-5920.9597    
-5906.6499    
-5902.0252    
-5872.2499    
-5880.4141    
-5898.5366    
-5904.7847    
Loop time of 0.103356 on 1 procs for 39 steps with 110 atoms


clear
units        real
boundary     p p p
atom_style   full
read_data    ./data/traj/al6H2Otraj-q0.data
Reading data file ...
  orthogonal box = (0 0 0) to (14.294261 14.294261 8.5765564)
  1 by 1 by 1 MPI processor grid
  reading atoms ...
  177 atoms
Finding 1-2 1-3 1-4 neighbors ...
  special bond factors lj:    0        0        0       
  special bond factors coul:  0        0        0       
     0 = max # of 1-2 neighbors
     0 = max # of 1-3 neighbors
     0 = max # of 1-4 neighbors
     1 = max # of special neighbors
  special bonds CPU = 0.000 seconds
  read_data CPU = 0.001 seconds

set type 1 charge  1.296
Setting atom values ...
  6 settings made for charge
set type 2 charge -0.898
Setting atom values ...
  63 settings made for charge
set type 3 charge  0.449
Setting atom values ...
  108 settings made for charge
set type 4 charge  1.000
Setting atom values ...
  0 settings made for charge

pair_style hybrid/overlay coul/long 8.5 sw lj/smooth/linear 5.0 gauss/cut 10.0 coord/gauss/cut 10.0
pair_coeff * * coul/long
pair_coeff * * coul/long
pair_coeff * * lj/smooth/linear 0 0 0
pair_coeff * * sw param_0.sw Al O H NULL
pair_coeff * * gauss/cut 0 0 1 0

pair_coeff 1 2 lj/smooth/linear 	  0.287433e-2   1.755116
pair_coeff 2 2 lj/smooth/linear 	  4.919300e-2   3.270000
pair_coeff 2 3 lj/smooth/linear 	  7.370236e-2   1.045332
pair_coeff 2 4 lj/smooth/linear 	  0.426214e-2   4.082864

pair_coeff 1 1 coord/gauss/cut 	  0.683561   2.685792   0.186946   5.044439   3.140677
pair_coeff 1 2 coord/gauss/cut 	 -7.688039   1.637367   0.222892   3.393892   1.697269
pair_coeff 2 3 gauss/cut 		 -0.474700   1.070000   0.075900   2.000000

kspace_style ewald 1.0e-5

thermo_style custom pe
thermo 1

fix 1 all qeq/point 1 8.5 1.0e-6 200 param_0.qeq

group counter empty
0 atoms in group counter
group todump subtract all counter
177 atoms in group todump

dump 3 todump custom 1 al6H2Otraj_0.FF.frc id fx fy fz
dump_modify 3 sort id
rerun ./data/traj/al6H2Otraj.dump dump x y z box yes
WARNING: No fixes with time integration, atoms won't move (src/verlet.cpp:60)
Ewald initialization ...
WARNING: System is not charge neutral, net charge = -0.306 (src/kspace.cpp:327)
  using 12-bit tables for long-range coulomb (src/kspace.cpp:342)
  G vector (1/distance) = 0.35738873
  estimated absolute RMS force accuracy = 0.00371478
  estimated relative force accuracy = 1.118695e-05
  KSpace vectors: actual max1d max3d = 338 5 665
                  kxmax kymax kzmax  = 5 5 4
WARNING: Fix qeq/point group is not charge neutral, net charge = -0.306 (src/QEQ/fix_qeq.cpp:329)
Neighbor list info ...
  update: every = 1 steps, delay = 0 steps, check = yes
  max neighbors/atom: 2000, page size: 100000
  master list distance cutoff = 12
  ghost atom cutoff = 12
  binsize = 6, bins = 3 3 2
  6 neighbor lists, perpetual/occasional/extra = 6 0 0
  (1) pair coul/long, perpetual, half/full trim from (6)
      attributes: half, newton on, cut 10.5
      pair build: halffull/trim/newton
      stencil: none
      bin: none
  (2) pair sw, perpetual, skip trim from (6)
      attributes: full, newton on, cut 4.075813802629246
      pair build: skip/trim
      stencil: none
      bin: none
  (3) pair lj/smooth/linear, perpetual, trim from (1)
      attributes: half, newton on, cut 7
      pair build: trim
      stencil: none
      bin: none
  (4) pair gauss/cut, perpetual, trim from (3)
      attributes: half, newton on, cut 4
      pair build: trim
      stencil: none
      bin: none
  (5) pair coord/gauss/cut, perpetual, skip from (6)
      attributes: full, newton on
      pair build: skip
      stencil: none
      bin: none
  (6) fix qeq/point, perpetual
      attributes: full, newton on
      pair build: full/bin
      stencil: full/bin/3d
      bin: standard
WARNING: Fix qeq/point group is not charge neutral, net charge = -0.306 (src/QEQ/fix_qeq.cpp:329)
Per MPI rank memory allocation (min/avg/max) = 21.85 | 21.85 | 21.85 Mbytes
    PotEng    
-10238.671    
-10258.549    
-10248.603    
-10264.548    
-10264.373    
-10251.477    
-10221.607    
-10250.726    
-10253.602    
-10248.259    
-10246.128    
-10244.046    
-10240.663    
-10236.546    
-10260.05     
-10275.049    
-10264.419    
-10257.814    
-10230.948    
-10259.316    
Loop time of 0.0867054 on 1 procs for 20 steps with 177 atoms


clear
units        real
boundary     p p p
atom_style   full
read_data    ./data/traj/32wOHtraj-q0.data
Reading data file ...
  orthogonal box = (0 0 0) to (10.171162 10.171162 10.171162)
  1 by 1 by 1 MPI processor grid
  reading atoms ...
  96 atoms
Finding 1-2 1-3 1-4 neighbors ...
  special bond factors lj:    0        0        0       
  special bond factors coul:  0        0        0       
     0 = max # of 1-2 neighbors
     0 = max # of 1-3 neighbors
     0 = max # of 1-4 neighbors
     1 = max # of special neighbors
  special bonds CPU = 0.000 seconds
  read_data CPU = 0.001 seconds

set type 1 charge  1.296
Setting atom values ...
  0 settings made for charge
set type 2 charge -0.898
Setting atom values ...
  32 settings made for charge
set type 3 charge  0.449
Setting atom values ...
  64 settings made for charge
set type 4 charge  1.000
Setting atom values ...
  0 settings made for charge

pair_style hybrid/overlay coul/long 8.5 sw lj/smooth/linear 5.0 gauss/cut 10.0 coord/gauss/cut 10.0
pair_coeff * * coul/long
pair_coeff * * coul/long
pair_coeff * * lj/smooth/linear 0 0 0
pair_coeff * * sw param_0.sw Al O H NULL
pair_coeff * * gauss/cut 0 0 1 0

pair_coeff 1 2 lj/smooth/linear 	  0.287433e-2   1.755116
pair_coeff 2 2 lj/smooth/linear 	  4.919300e-2   3.270000
pair_coeff 2 3 lj/smooth/linear 	  7.370236e-2   1.045332
pair_coeff 2 4 lj/smooth/linear 	  0.426214e-2   4.082864

pair_coeff 1 1 coord/gauss/cut 	  0.683561   2.685792   0.186946   5.044439   3.140677
pair_coeff 1 2 coord/gauss/cut 	 -7.688039   1.637367   0.222892   3.393892   1.697269
pair_coeff 2 3 gauss/cut 		 -0.474700   1.070000   0.075900   2.000000

kspace_style ewald 1.0e-5

thermo_style custom pe
thermo 1

fix 1 all qeq/point 1 8.5 1.0e-6 200 param_0.qeq

group counter empty
0 atoms in group counter
group todump subtract all counter
96 atoms in group todump

dump 3 todump custom 1 32wOHtraj_0.FF.frc id fx fy fz
dump_modify 3 sort id
rerun ./data/traj/32wOHtraj.dump dump x y z box yes
WARNING: No fixes with time integration, atoms won't move (src/verlet.cpp:60)
Ewald initialization ...
  using 12-bit tables for long-range coulomb (src/kspace.cpp:342)
  G vector (1/distance) = 0.35353991
  estimated absolute RMS force accuracy = 0.0033231858
  estimated relative force accuracy = 1.0007675e-05
  KSpace vectors: actual max1d max3d = 128 4 364
                  kxmax kymax kzmax  = 4 4 4
Neighbor list info ...
  update: every = 1 steps, delay = 0 steps, check = yes
  max neighbors/atom: 2000, page size: 100000
  master list distance cutoff = 12
  ghost atom cutoff = 12
  binsize = 6, bins = 2 2 2
  6 neighbor lists, perpetual/occasional/extra = 6 0 0
  (1) pair coul/long, perpetual, half/full trim from (6)
      attributes: half, newton on, cut 10.5
      pair build: halffull/trim/newton
      stencil: none
      bin: none
  (2) pair sw, perpetual, skip trim from (6)
      attributes: full, newton on, cut 4.075813802629246
      pair build: skip/trim
      stencil: none
      bin: none
  (3) pair lj/smooth/linear, perpetual, trim from (1)
      attributes: half, newton on, cut 7
      pair build: trim
      stencil: none
      bin: none
  (4) pair gauss/cut, perpetual, trim from (3)
      attributes: half, newton on, cut 4
      pair build: trim
      stencil: none
      bin: none
  (5) pair coord/gauss/cut, perpetual, skip from (6)
      attributes: full, newton on
      pair build: skip
      stencil: none
      bin: none
  (6) fix qeq/point, perpetual
      attributes: full, newton on
      pair build: full/bin
      stencil: full/bin/3d
      bin: standard
Per MPI rank memory allocation (min/avg/max) = 19.66 | 19.66 | 19.66 Mbytes
    PotEng    
-4677.1522    
-4675.6245    
-4674.2927    
-4672.3215    
-4669.9522    
-4667.8805    
-4666.505     
-4665.6592    
-4665.1941    
-4664.8606    
-4664.3051    
Loop time of 0.021671 on 1 procs for 11 steps with 96 atoms


clear
units        real
boundary     p p p
atom_style   full
read_data    ./data/data/gibbulk-q0.data
Reading data file ...
  triclinic box = (-0.1325 0.001 -0.006228) to (8.5655 10.122 9.661228) with tilt (0 -0.730293 0)
  1 by 1 by 1 MPI processor grid
  reading atoms ...
  112 atoms
Finding 1-2 1-3 1-4 neighbors ...
  special bond factors lj:    0        0        0       
  special bond factors coul:  0        0        0       
     0 = max # of 1-2 neighbors
     0 = max # of 1-3 neighbors
     0 = max # of 1-4 neighbors
     1 = max # of special neighbors
  special bonds CPU = 0.000 seconds
  read_data CPU = 0.001 seconds

set type 1 charge  1.296
Setting atom values ...
  16 settings made for charge
set type 2 charge -0.898
Setting atom values ...
  48 settings made for charge
set type 3 charge  0.449
Setting atom values ...
  48 settings made for charge
set type 4 charge  1.000
Setting atom values ...
  0 settings made for charge

pair_style hybrid/overlay coul/long 8.5 sw lj/smooth/linear 5.0 gauss/cut 10.0 coord/gauss/cut 10.0
pair_coeff * * coul/long
pair_coeff * * coul/long
pair_coeff * * lj/smooth/linear 0 0 0
pair_coeff * * sw param_0.sw Al O H NULL
pair_coeff * * gauss/cut 0 0 1 0

pair_coeff 1 2 lj/smooth/linear 	  0.287433e-2   1.755116
pair_coeff 2 2 lj/smooth/linear 	  4.919300e-2   3.270000
pair_coeff 2 3 lj/smooth/linear 	  7.370236e-2   1.045332
pair_coeff 2 4 lj/smooth/linear 	  0.426214e-2   4.082864

pair_coeff 1 1 coord/gauss/cut 	  0.683561   2.685792   0.186946   5.044439   3.140677
pair_coeff 1 2 coord/gauss/cut 	 -7.688039   1.637367   0.222892   3.393892   1.697269
pair_coeff 2 3 gauss/cut 		 -0.474700   1.070000   0.075900   2.000000

kspace_style ewald 1.0e-5

thermo_style custom pe pxx pyy pzz pxy pxz pyz
thermo 1

fix 1 all qeq/point 1 8.5 1.0e-6 200 param_0.qeq

group counter empty
0 atoms in group counter
group todump subtract all counter
112 atoms in group todump

run 0
WARNING: No fixes with time integration, atoms won't move (src/verlet.cpp:60)
Ewald initialization ...
WARNING: System is not charge neutral, net charge = -0.816 (src/kspace.cpp:327)
  using 12-bit tables for long-range coulomb (src/kspace.cpp:342)
  G vector (1/distance) = 0.36687171
  estimated absolute RMS force accuracy = 0.0033357469
  estimated relative force accuracy = 1.0045503e-05
  KSpace vectors: actual max1d max3d = 173 4 364
                  kxmax kymax kzmax  = 4 4 4
WARNING: Fix qeq/point group is not charge neutral, net charge = -0.816 (src/QEQ/fix_qeq.cpp:329)
Neighbor list info ...
  update: every = 1 steps, delay = 0 steps, check = yes
  max neighbors/atom: 2000, page size: 100000
  master list distance cutoff = 12
  ghost atom cutoff = 12
  binsize = 6, bins = 2 2 2
  6 neighbor lists, perpetual/occasional/extra = 6 0 0
  (1) pair coul/long, perpetual, half/full trim from (6)
      attributes: half, newton on, cut 10.5
      pair build: halffull/trim/newton/tri
      stencil: none
      bin: none
  (2) pair sw, perpetual, skip trim from (6)
      attributes: full, newton on, cut 4.075813802629246
      pair build: skip/trim
      stencil: none
      bin: none
  (3) pair lj/smooth/linear, perpetual, trim from (1)
      attributes: half, newton on, cut 7
      pair build: trim
      stencil: none
      bin: none
  (4) pair gauss/cut, perpetual, trim from (3)
      attributes: half, newton on, cut 4
      pair build: trim
      stencil: none
      bin: none
  (5) pair coord/gauss/cut, perpetual, skip from (6)
      attributes: full, newton on
      pair build: skip
      stencil: none
      bin: none
  (6) fix qeq/point, perpetual
      attributes: full, newton on
      pair build: full/bin
      stencil: full/bin/3d
      bin: standard
Per MPI rank memory allocation (min/avg/max) = 20.21 | 20.21 | 20.21 Mbytes
    PotEng          Pxx            Pyy            Pzz            Pxy            Pxz            Pyz      
-9951.9637     -236364.89     -232213.56     -215645.24     -410.04321      5223.0132     -398.63339    
Loop time of 5.41e-07 on 1 procs for 0 steps with 112 atoms

184.8% CPU use with 1 MPI tasks x no OpenMP threads

MPI task timing breakdown:
Section |  min time  |  avg time  |  max time  |%varavg| %total
---------------------------------------------------------------
Pair    | 0          | 0          | 0          |   0.0 |  0.00
Bond    | 0          | 0          | 0          |   0.0 |  0.00
Kspace  | 0          | 0          | 0          |   0.0 |  0.00
Neigh   | 0          | 0          | 0          |   0.0 |  0.00
Comm    | 0          | 0          | 0          |   0.0 |  0.00
Output  | 0          | 0          | 0          |   0.0 |  0.00
Modify  | 0          | 0          | 0          |   0.0 |  0.00
Other   |            | 5.41e-07   |            |       |100.00

Nlocal:            112 ave         112 max         112 min
Histogram: 1 0 0 0 0 0 0 0 0 0
Nghost:           4869 ave        4869 max        4869 min
Histogram: 1 0 0 0 0 0 0 0 0 0
Neighs:          35709 ave       35709 max       35709 min
Histogram: 1 0 0 0 0 0 0 0 0 0
FullNghs:        76640 ave       76640 max       76640 min
Histogram: 1 0 0 0 0 0 0 0 0 0

Total # of neighbors = 76640
Ave neighs/atom = 684.28571
Ave special neighs/atom = 0
Neighbor list builds = 0
Dangerous builds = 0
print "gibbulk: $(pe) $(fnorm) $(pxx) $(pyy) $(pzz) $(pxy) $(pxz) $(pyz)" append ener_0.dat screen no

clear
units        real
boundary     p p p
atom_style   full
read_data    ./data/traj/32wOOtraj-q0.data
Reading data file ...
  orthogonal box = (0 0 0) to (10.171162 10.171162 10.171162)
  1 by 1 by 1 MPI processor grid
  reading atoms ...
  96 atoms
Finding 1-2 1-3 1-4 neighbors ...
  special bond factors lj:    0        0        0       
  special bond factors coul:  0        0        0       
     0 = max # of 1-2 neighbors
     0 = max # of 1-3 neighbors
     0 = max # of 1-4 neighbors
     1 = max # of special neighbors
  special bonds CPU = 0.000 seconds
  read_data CPU = 0.001 seconds

set type 1 charge  1.296
Setting atom values ...
  0 settings made for charge
set type 2 charge -0.898
Setting atom values ...
  32 settings made for charge
set type 3 charge  0.449
Setting atom values ...
  64 settings made for charge
set type 4 charge  1.000
Setting atom values ...
  0 settings made for charge

pair_style hybrid/overlay coul/long 8.5 sw lj/smooth/linear 5.0 gauss/cut 10.0 coord/gauss/cut 10.0
pair_coeff * * coul/long
pair_coeff * * coul/long
pair_coeff * * lj/smooth/linear 0 0 0
pair_coeff * * sw param_0.sw Al O H NULL
pair_coeff * * gauss/cut 0 0 1 0

pair_coeff 1 2 lj/smooth/linear 	  0.287433e-2   1.755116
pair_coeff 2 2 lj/smooth/linear 	  4.919300e-2   3.270000
pair_coeff 2 3 lj/smooth/linear 	  7.370236e-2   1.045332
pair_coeff 2 4 lj/smooth/linear 	  0.426214e-2   4.082864

pair_coeff 1 1 coord/gauss/cut 	  0.683561   2.685792   0.186946   5.044439   3.140677
pair_coeff 1 2 coord/gauss/cut 	 -7.688039   1.637367   0.222892   3.393892   1.697269
pair_coeff 2 3 gauss/cut 		 -0.474700   1.070000   0.075900   2.000000

kspace_style ewald 1.0e-5

thermo_style custom pe
thermo 1

fix 1 all qeq/point 1 8.5 1.0e-6 200 param_0.qeq

group counter empty
0 atoms in group counter
group todump subtract all counter
96 atoms in group todump

dump 3 todump custom 1 32wOOtraj_0.FF.frc id fx fy fz
dump_modify 3 sort id
rerun ./data/traj/32wOOtraj.dump dump x y z box yes
WARNING: No fixes with time integration, atoms won't move (src/verlet.cpp:60)
Ewald initialization ...
  using 12-bit tables for long-range coulomb (src/kspace.cpp:342)
  G vector (1/distance) = 0.35353991
  estimated absolute RMS force accuracy = 0.0033231858
  estimated relative force accuracy = 1.0007675e-05
  KSpace vectors: actual max1d max3d = 128 4 364
                  kxmax kymax kzmax  = 4 4 4
Neighbor list info ...
  update: every = 1 steps, delay = 0 steps, check = yes
  max neighbors/atom: 2000, page size: 100000
  master list distance cutoff = 12
  ghost atom cutoff = 12
  binsize = 6, bins = 2 2 2
  6 neighbor lists, perpetual/occasional/extra = 6 0 0
  (1) pair coul/long, perpetual, half/full trim from (6)
      attributes: half, newton on, cut 10.5
      pair build: halffull/trim/newton
      stencil: none
      bin: none
  (2) pair sw, perpetual, skip trim from (6)
      attributes: full, newton on, cut 4.075813802629246
      pair build: skip/trim
      stencil: none
      bin: none
  (3) pair lj/smooth/linear, perpetual, trim from (1)
      attributes: half, newton on, cut 7
      pair build: trim
      stencil: none
      bin: none
  (4) pair gauss/cut, perpetual, trim from (3)
      attributes: half, newton on, cut 4
      pair build: trim
      stencil: none
      bin: none
  (5) pair coord/gauss/cut, perpetual, skip from (6)
      attributes: full, newton on
      pair build: skip
      stencil: none
      bin: none
  (6) fix qeq/point, perpetual
      attributes: full, newton on
      pair build: full/bin
      stencil: full/bin/3d
      bin: standard
Per MPI rank memory allocation (min/avg/max) = 19.66 | 19.66 | 19.66 Mbytes
    PotEng    
-4615.6859    
-4633.4731    
-4645.504     
-4654.362     
-4661.1215    
-4666.0508    
-4669.5299    
-4671.8416    
-4673.5033    
-4674.5356    
-4675.1842    
-4675.916     
-4676.4211    
-4676.8394    
-4677.0159    
-4677.0428    
-4676.8476    
-4676.8508    
-4676.8524    
-4676.5265    
-4676.3195    
Loop time of 0.0400965 on 1 procs for 21 steps with 96 atoms


clear
units        real
boundary     f f f
atom_style   full
read_data    ./data/data/w2-q0.data
Reading data file ...
  orthogonal box = (-34 -34 -34) to (34 34 34)
  1 by 1 by 1 MPI processor grid
  reading atoms ...
  6 atoms
Finding 1-2 1-3 1-4 neighbors ...
  special bond factors lj:    0        0        0       
  special bond factors coul:  0        0        0       
     0 = max # of 1-2 neighbors
     0 = max # of 1-3 neighbors
     0 = max # of 1-4 neighbors
     1 = max # of special neighbors
  special bonds CPU = 0.000 seconds
  read_data CPU = 0.000 seconds

set type 1 charge  1.296
Setting atom values ...
  0 settings made for charge
set type 2 charge -0.898
Setting atom values ...
  2 settings made for charge
set type 3 charge  0.449
Setting atom values ...
  4 settings made for charge
set type 4 charge  1.000
Setting atom values ...
  0 settings made for charge

pair_style hybrid/overlay coul/cut 15.0 sw lj/smooth/linear 5.0 gauss/cut 10.0 coord/gauss/cut 10.0
pair_coeff * * coul/cut
pair_coeff * * coul/cut
pair_coeff * * lj/smooth/linear 0 0 0
pair_coeff * * sw param_0.sw Al O H NULL
pair_coeff * * gauss/cut 0 0 1 0

pair_coeff 1 2 lj/smooth/linear 	  0.287433e-2   1.755116
pair_coeff 2 2 lj/smooth/linear 	  4.919300e-2   3.270000
pair_coeff 2 3 lj/smooth/linear 	  7.370236e-2   1.045332
pair_coeff 2 4 lj/smooth/linear 	  0.426214e-2   4.082864

pair_coeff 1 1 coord/gauss/cut 	  0.683561   2.685792   0.186946   5.044439   3.140677
pair_coeff 1 2 coord/gauss/cut 	 -7.688039   1.637367   0.222892   3.393892   1.697269
pair_coeff 2 3 gauss/cut 		 -0.474700   1.070000   0.075900   2.000000

kspace_style none

thermo_style custom pe fnorm
thermo 1

fix 1 all qeq/point 1 8.5 1.0e-6 200 param_0.qeq

group counter empty
0 atoms in group counter
group todump subtract all counter
6 atoms in group todump

compute 1 all property/atom q
dump 1 todump custom 1 w2_0.q id c_1
dump_modify 1 sort id

run 0
WARNING: No fixes with time integration, atoms won't move (src/verlet.cpp:60)
Neighbor list info ...
  update: every = 1 steps, delay = 0 steps, check = yes
  max neighbors/atom: 2000, page size: 100000
  master list distance cutoff = 17
  ghost atom cutoff = 17
  binsize = 8.5, bins = 8 8 8
  6 neighbor lists, perpetual/occasional/extra = 6 0 0
  (1) pair coul/cut, perpetual, half/full from (6)
      attributes: half, newton on
      pair build: halffull/newton
      stencil: none
      bin: none
  (2) pair sw, perpetual, skip trim from (6)
      attributes: full, newton on, cut 4.075813802629246
      pair build: skip/trim
      stencil: none
      bin: none
  (3) pair lj/smooth/linear, perpetual, trim from (1)
      attributes: half, newton on, cut 7
      pair build: trim
      stencil: none
      bin: none
  (4) pair gauss/cut, perpetual, trim from (3)
      attributes: half, newton on, cut 4
      pair build: trim
      stencil: none
      bin: none
  (5) pair coord/gauss/cut, perpetual, skip trim from (6)
      attributes: full, newton on, cut 12
      pair build: skip/trim
      stencil: none
      bin: none
  (6) fix qeq/point, perpetual
      attributes: full, newton on
      pair build: full/bin
      stencil: full/bin/3d
      bin: standard
Per MPI rank memory allocation (min/avg/max) = 11.83 | 11.83 | 11.83 Mbytes
    PotEng         Fnorm     
-287.01001      120.58762    
Loop time of 3.75e-07 on 1 procs for 0 steps with 6 atoms

0.0% CPU use with 1 MPI tasks x no OpenMP threads

MPI task timing breakdown:
Section |  min time  |  avg time  |  max time  |%varavg| %total
---------------------------------------------------------------
Pair    | 0          | 0          | 0          |   0.0 |  0.00
Bond    | 0          | 0          | 0          |   0.0 |  0.00
Neigh   | 0          | 0          | 0          |   0.0 |  0.00
Comm    | 0          | 0          | 0          |   0.0 |  0.00
Output  | 0          | 0          | 0          |   0.0 |  0.00
Modify  | 0          | 0          | 0          |   0.0 |  0.00
Other   |            | 3.75e-07   |            |       |100.00

Nlocal:              6 ave           6 max           6 min
Histogram: 1 0 0 0 0 0 0 0 0 0
Nghost:              0 ave           0 max           0 min
Histogram: 1 0 0 0 0 0 0 0 0 0
Neighs:             15 ave          15 max          15 min
Histogram: 1 0 0 0 0 0 0 0 0 0
FullNghs:           30 ave          30 max          30 min
Histogram: 1 0 0 0 0 0 0 0 0 0

Total # of neighbors = 30
Ave neighs/atom = 5
Ave special neighs/atom = 0
Neighbor list builds = 0
Dangerous builds = 0
print "w2: $(pe) $(fnorm) " append ener_0.dat screen no

clear
units        real
boundary     f f f
atom_style   full
read_data    ./data/data/wscan-q0.data
Reading data file ...
  orthogonal box = (-34 -34 -34) to (34 34 34)
  1 by 1 by 1 MPI processor grid
  reading atoms ...
  3 atoms
Finding 1-2 1-3 1-4 neighbors ...
  special bond factors lj:    0        0        0       
  special bond factors coul:  0        0        0       
     0 = max # of 1-2 neighbors
     0 = max # of 1-3 neighbors
     0 = max # of 1-4 neighbors
     1 = max # of special neighbors
  special bonds CPU = 0.000 seconds
  read_data CPU = 0.001 seconds

set type 1 charge  1.296
Setting atom values ...
  0 settings made for charge
set type 2 charge -0.898
Setting atom values ...
  1 settings made for charge
set type 3 charge  0.449
Setting atom values ...
  2 settings made for charge
set type 4 charge  1.000
Setting atom values ...
  0 settings made for charge

pair_style hybrid/overlay coul/cut 15.0 sw lj/smooth/linear 5.0 gauss/cut 10.0 coord/gauss/cut 10.0
pair_coeff * * coul/cut
pair_coeff * * coul/cut
pair_coeff * * lj/smooth/linear 0 0 0
pair_coeff * * sw param_0.sw Al O H NULL
pair_coeff * * gauss/cut 0 0 1 0

pair_coeff 1 2 lj/smooth/linear 	  0.287433e-2   1.755116
pair_coeff 2 2 lj/smooth/linear 	  4.919300e-2   3.270000
pair_coeff 2 3 lj/smooth/linear 	  7.370236e-2   1.045332
pair_coeff 2 4 lj/smooth/linear 	  0.426214e-2   4.082864

pair_coeff 1 1 coord/gauss/cut 	  0.683561   2.685792   0.186946   5.044439   3.140677
pair_coeff 1 2 coord/gauss/cut 	 -7.688039   1.637367   0.222892   3.393892   1.697269
pair_coeff 2 3 gauss/cut 		 -0.474700   1.070000   0.075900   2.000000

kspace_style none

thermo_style custom pe
thermo 1

fix 1 all qeq/point 1 8.5 1.0e-6 200 param_0.qeq

group counter empty
0 atoms in group counter
group todump subtract all counter
3 atoms in group todump

dump 3 todump custom 1 wscan.FF.frc id fx fy fz
dump_modify 3 sort id
rerun ./data/scan/wscan.xyz dump x y z box no format xyz
WARNING: No fixes with time integration, atoms won't move (src/verlet.cpp:60)
Neighbor list info ...
  update: every = 1 steps, delay = 0 steps, check = yes
  max neighbors/atom: 2000, page size: 100000
  master list distance cutoff = 17
  ghost atom cutoff = 17
  binsize = 8.5, bins = 8 8 8
  6 neighbor lists, perpetual/occasional/extra = 6 0 0
  (1) pair coul/cut, perpetual, half/full from (6)
      attributes: half, newton on
      pair build: halffull/newton
      stencil: none
      bin: none
  (2) pair sw, perpetual, skip trim from (6)
      attributes: full, newton on, cut 4.075813802629246
      pair build: skip/trim
      stencil: none
      bin: none
  (3) pair lj/smooth/linear, perpetual, trim from (1)
      attributes: half, newton on, cut 7
      pair build: trim
      stencil: none
      bin: none
  (4) pair gauss/cut, perpetual, trim from (3)
      attributes: half, newton on, cut 4
      pair build: trim
      stencil: none
      bin: none
  (5) pair coord/gauss/cut, perpetual, skip trim from (6)
      attributes: full, newton on, cut 12
      pair build: skip/trim
      stencil: none
      bin: none
  (6) fix qeq/point, perpetual
      attributes: full, newton on
      pair build: full/bin
      stencil: full/bin/3d
      bin: standard
Per MPI rank memory allocation (min/avg/max) = 11.71 | 11.71 | 11.71 Mbytes
    PotEng    
-134.15672    
-136.91843    
-138.81184    
-140.88732    
-141.60991    
-141.52375    
-140.22629    
-139.32141    
-137.88744    
-135.80853    
Loop time of 0.000374083 on 1 procs for 10 steps with 3 atoms


clear
units        real
boundary     p p p
atom_style   full
read_data    ./data/traj/2m1tod2btraj-q0.data
Reading data file ...
  orthogonal box = (0 0 0) to (10.427942 10.427942 10.427942)
  1 by 1 by 1 MPI processor grid
  reading atoms ...
  110 atoms
Finding 1-2 1-3 1-4 neighbors ...
  special bond factors lj:    0        0        0       
  special bond factors coul:  0        0        0       
     0 = max # of 1-2 neighbors
     0 = max # of 1-3 neighbors
     0 = max # of 1-4 neighbors
     1 = max # of special neighbors
  special bonds CPU = 0.000 seconds
  read_data CPU = 0.001 seconds

set type 1 charge  1.296
Setting atom values ...
  2 settings made for charge
set type 2 charge -0.898
Setting atom values ...
  38 settings made for charge
set type 3 charge  0.449
Setting atom values ...
  68 settings made for charge
set type 4 charge  1.000
Setting atom values ...
  2 settings made for charge

pair_style hybrid/overlay coul/long 8.5 sw lj/smooth/linear 5.0 gauss/cut 10.0 coord/gauss/cut 10.0
pair_coeff * * coul/long
pair_coeff * * coul/long
pair_coeff * * lj/smooth/linear 0 0 0
pair_coeff * * sw param_0.sw Al O H NULL
pair_coeff * * gauss/cut 0 0 1 0

pair_coeff 1 2 lj/smooth/linear 	  0.287433e-2   1.755116
pair_coeff 2 2 lj/smooth/linear 	  4.919300e-2   3.270000
pair_coeff 2 3 lj/smooth/linear 	  7.370236e-2   1.045332
pair_coeff 2 4 lj/smooth/linear 	  0.426214e-2   4.082864

pair_coeff 1 1 coord/gauss/cut 	  0.683561   2.685792   0.186946   5.044439   3.140677
pair_coeff 1 2 coord/gauss/cut 	 -7.688039   1.637367   0.222892   3.393892   1.697269
pair_coeff 2 3 gauss/cut 		 -0.474700   1.070000   0.075900   2.000000

kspace_style ewald 1.0e-5

thermo_style custom pe
thermo 1

fix 1 all qeq/point 1 8.5 1.0e-6 200 param_0.qeq

group counter empty
0 atoms in group counter
group todump subtract all counter
110 atoms in group todump

dump 3 todump custom 1 2m1tod2btraj_0.FF.frc id fx fy fz
dump_modify 3 sort id
rerun ./data/traj/2m1tod2btraj.dump dump x y z box yes
WARNING: No fixes with time integration, atoms won't move (src/verlet.cpp:60)
Ewald initialization ...
WARNING: System is not charge neutral, net charge = 1 (src/kspace.cpp:327)
  using 12-bit tables for long-range coulomb (src/kspace.cpp:342)
  G vector (1/distance) = 0.35636188
  estimated absolute RMS force accuracy = 0.0033369181
  estimated relative force accuracy = 1.004903e-05
  KSpace vectors: actual max1d max3d = 128 4 364
                  kxmax kymax kzmax  = 4 4 4
WARNING: Fix qeq/point group is not charge neutral, net charge = 1 (src/QEQ/fix_qeq.cpp:329)
Neighbor list info ...
  update: every = 1 steps, delay = 0 steps, check = yes
  max neighbors/atom: 2000, page size: 100000
  master list distance cutoff = 12
  ghost atom cutoff = 12
  binsize = 6, bins = 2 2 2
  6 neighbor lists, perpetual/occasional/extra = 6 0 0
  (1) pair coul/long, perpetual, half/full trim from (6)
      attributes: half, newton on, cut 10.5
      pair build: halffull/trim/newton
      stencil: none
      bin: none
  (2) pair sw, perpetual, skip trim from (6)
      attributes: full, newton on, cut 4.075813802629246
      pair build: skip/trim
      stencil: none
      bin: none
  (3) pair lj/smooth/linear, perpetual, trim from (1)
      attributes: half, newton on, cut 7
      pair build: trim
      stencil: none
      bin: none
  (4) pair gauss/cut, perpetual, trim from (3)
      attributes: half, newton on, cut 4
      pair build: trim
      stencil: none
      bin: none
  (5) pair coord/gauss/cut, perpetual, skip from (6)
      attributes: full, newton on
      pair build: skip
      stencil: none
      bin: none
  (6) fix qeq/point, perpetual
      attributes: full, newton on
      pair build: full/bin
      stencil: full/bin/3d
      bin: standard
WARNING: Fix qeq/point group is not charge neutral, net charge = 1 (src/QEQ/fix_qeq.cpp:329)
Per MPI rank memory allocation (min/avg/max) = 19.82 | 19.82 | 19.82 Mbytes
    PotEng    
-5938.4234    
-5939.7239    
-5932.5939    
-5931.9712    
-5937.5858    
-5930.375     
-5927.9577    
-5937.421     
-5942.3245    
-5934.6813    
-5937.4168    
-5938.7483    
-5932.4724    
-5936.7768    
-5938.7615    
-5943.1469    
-5944.5622    
-5928.8053    
-5939.856     
-5931.0857    
-5933.2557    
-5925.0783    
Loop time of 0.0596856 on 1 procs for 22 steps with 110 atoms


clear
units        real
boundary     p p p
atom_style   full
read_data    ./data/traj/gibSEowtraj-q0.data
Reading data file ...
  orthogonal box = (0 0 0) to (14.841 17.165 17.836)
  1 by 1 by 1 MPI processor grid
  reading atoms ...
  537 atoms
Finding 1-2 1-3 1-4 neighbors ...
  special bond factors lj:    0        0        0       
  special bond factors coul:  0        0        0       
     0 = max # of 1-2 neighbors
     0 = max # of 1-3 neighbors
     0 = max # of 1-4 neighbors
     1 = max # of special neighbors
  special bonds CPU = 0.000 seconds
  read_data CPU = 0.001 seconds

set type 1 charge  1.296
Setting atom values ...
  42 settings made for charge
set type 2 charge -0.898
Setting atom values ...
  207 settings made for charge
set type 3 charge  0.449
Setting atom values ...
  288 settings made for charge
set type 4 charge  1.000
Setting atom values ...
  0 settings made for charge

pair_style hybrid/overlay coul/long 8.5 sw lj/smooth/linear 5.0 gauss/cut 10.0 coord/gauss/cut 10.0
pair_coeff * * coul/long
pair_coeff * * coul/long
pair_coeff * * lj/smooth/linear 0 0 0
pair_coeff * * sw param_0.sw Al O H NULL
pair_coeff * * gauss/cut 0 0 1 0

pair_coeff 1 2 lj/smooth/linear 	  0.287433e-2   1.755116
pair_coeff 2 2 lj/smooth/linear 	  4.919300e-2   3.270000
pair_coeff 2 3 lj/smooth/linear 	  7.370236e-2   1.045332
pair_coeff 2 4 lj/smooth/linear 	  0.426214e-2   4.082864

pair_coeff 1 1 coord/gauss/cut 	  0.683561   2.685792   0.186946   5.044439   3.140677
pair_coeff 1 2 coord/gauss/cut 	 -7.688039   1.637367   0.222892   3.393892   1.697269
pair_coeff 2 3 gauss/cut 		 -0.474700   1.070000   0.075900   2.000000

kspace_style ewald 1.0e-5

thermo_style custom pe
thermo 1

fix 1 all qeq/point 1 8.5 1.0e-6 200 param_0.qeq

group counter empty
0 atoms in group counter
group todump subtract all counter
537 atoms in group todump

dump 3 todump custom 1 gibSEowtraj_0.FF.frc id fx fy fz
dump_modify 3 sort id
rerun ./data/traj/gibSEowtraj.dump dump x y z box yes
WARNING: No fixes with time integration, atoms won't move (src/verlet.cpp:60)
Ewald initialization ...
WARNING: System is not charge neutral, net charge = -2.142 (src/kspace.cpp:327)
  using 12-bit tables for long-range coulomb (src/kspace.cpp:342)
  G vector (1/distance) = 0.36206005
  estimated absolute RMS force accuracy = 0.0033298422
  estimated relative force accuracy = 1.0027721e-05
  KSpace vectors: actual max1d max3d = 632 7 1687
                  kxmax kymax kzmax  = 6 7 7
WARNING: Fix qeq/point group is not charge neutral, net charge = -2.142 (src/QEQ/fix_qeq.cpp:329)
Neighbor list info ...
  update: every = 1 steps, delay = 0 steps, check = yes
  max neighbors/atom: 2000, page size: 100000
  master list distance cutoff = 12
  ghost atom cutoff = 12
  binsize = 6, bins = 3 3 3
  6 neighbor lists, perpetual/occasional/extra = 6 0 0
  (1) pair coul/long, perpetual, half/full trim from (6)
      attributes: half, newton on, cut 10.5
      pair build: halffull/trim/newton
      stencil: none
      bin: none
  (2) pair sw, perpetual, skip trim from (6)
      attributes: full, newton on, cut 4.075813802629246
      pair build: skip/trim
      stencil: none
      bin: none
  (3) pair lj/smooth/linear, perpetual, trim from (1)
      attributes: half, newton on, cut 7
      pair build: trim
      stencil: none
      bin: none
[...]
WARNING: Too many warnings: 115 vs 100. All future warnings will be suppressed (src/thermo.cpp:478)
-22304.252     -296399.42     -308771.14     -331013.51      2.5091662     -15.66791      -122.60609    
Loop time of 4.17e-07 on 1 procs for 0 steps with 192 atoms

0.0% CPU use with 1 MPI tasks x no OpenMP threads

MPI task timing breakdown:
Section |  min time  |  avg time  |  max time  |%varavg| %total
---------------------------------------------------------------
Pair    | 0          | 0          | 0          |   0.0 |  0.00
Bond    | 0          | 0          | 0          |   0.0 |  0.00
Kspace  | 0          | 0          | 0          |   0.0 |  0.00
Neigh   | 0          | 0          | 0          |   0.0 |  0.00
Comm    | 0          | 0          | 0          |   0.0 |  0.00
Output  | 0          | 0          | 0          |   0.0 |  0.00
Modify  | 0          | 0          | 0          |   0.0 |  0.00
Other   |            | 4.17e-07   |            |       |100.00

Nlocal:            192 ave         192 max         192 min
Histogram: 1 0 0 0 0 0 0 0 0 0
Nghost:           5064 ave        5064 max        5064 min
Histogram: 1 0 0 0 0 0 0 0 0 0
Neighs:          59760 ave       59760 max       59760 min
Histogram: 1 0 0 0 0 0 0 0 0 0
FullNghs:       137088 ave      137088 max      137088 min
Histogram: 1 0 0 0 0 0 0 0 0 0

Total # of neighbors = 137088
Ave neighs/atom = 714
Ave special neighs/atom = 0
Neighbor list builds = 0
Dangerous builds = 0
print "boehmiteb: $(pe) $(fnorm) $(pxx) $(pyy) $(pzz) $(pxy) $(pxz) $(pyz)" append ener_0.dat screen no

clear
units        real
boundary     f f f
atom_style   full
read_data    ./data/data/d3na-q0.data
Reading data file ...
  orthogonal box = (-34 -34 -34) to (34 34 34)
  1 by 1 by 1 MPI processor grid
  reading atoms ...
  20 atoms
Finding 1-2 1-3 1-4 neighbors ...
  special bond factors lj:    0        0        0       
  special bond factors coul:  0        0        0       
     0 = max # of 1-2 neighbors
     0 = max # of 1-3 neighbors
     0 = max # of 1-4 neighbors
     1 = max # of special neighbors
  special bonds CPU = 0.000 seconds
  read_data CPU = 0.001 seconds

set type 1 charge  1.296
Setting atom values ...
  2 settings made for charge
set type 2 charge -0.898
Setting atom values ...
  8 settings made for charge
set type 3 charge  0.449
Setting atom values ...
  8 settings made for charge
set type 4 charge  1.000
Setting atom values ...
  2 settings made for charge

pair_style hybrid/overlay coul/cut 15.0 sw lj/smooth/linear 5.0 gauss/cut 10.0 coord/gauss/cut 10.0
pair_coeff * * coul/cut
pair_coeff * * coul/cut
pair_coeff * * lj/smooth/linear 0 0 0
pair_coeff * * sw param_0.sw Al O H NULL
pair_coeff * * gauss/cut 0 0 1 0

pair_coeff 1 2 lj/smooth/linear 	  0.287433e-2   1.755116
pair_coeff 2 2 lj/smooth/linear 	  4.919300e-2   3.270000
pair_coeff 2 3 lj/smooth/linear 	  7.370236e-2   1.045332
pair_coeff 2 4 lj/smooth/linear 	  0.426214e-2   4.082864

pair_coeff 1 1 coord/gauss/cut 	  0.683561   2.685792   0.186946   5.044439   3.140677
pair_coeff 1 2 coord/gauss/cut 	 -7.688039   1.637367   0.222892   3.393892   1.697269
pair_coeff 2 3 gauss/cut 		 -0.474700   1.070000   0.075900   2.000000

kspace_style none

thermo_style custom pe fnorm
thermo 1

fix 1 all qeq/point 1 8.5 1.0e-6 200 param_0.qeq

group counter empty
0 atoms in group counter
group todump subtract all counter
20 atoms in group todump

compute 1 all property/atom q
dump 1 todump custom 1 d3na_0.q id c_1
dump_modify 1 sort id

run 0
Neighbor list info ...
  update: every = 1 steps, delay = 0 steps, check = yes
  max neighbors/atom: 2000, page size: 100000
  master list distance cutoff = 17
  ghost atom cutoff = 17
  binsize = 8.5, bins = 8 8 8
  6 neighbor lists, perpetual/occasional/extra = 6 0 0
  (1) pair coul/cut, perpetual, half/full from (6)
      attributes: half, newton on
      pair build: halffull/newton
      stencil: none
      bin: none
  (2) pair sw, perpetual, skip trim from (6)
      attributes: full, newton on, cut 4.075813802629246
      pair build: skip/trim
      stencil: none
      bin: none
  (3) pair lj/smooth/linear, perpetual, trim from (1)
      attributes: half, newton on, cut 7
      pair build: trim
      stencil: none
      bin: none
  (4) pair gauss/cut, perpetual, trim from (3)
      attributes: half, newton on, cut 4
      pair build: trim
      stencil: none
      bin: none
  (5) pair coord/gauss/cut, perpetual, skip trim from (6)
      attributes: full, newton on, cut 12
      pair build: skip/trim
      stencil: none
      bin: none
  (6) fix qeq/point, perpetual
      attributes: full, newton on
      pair build: full/bin
      stencil: full/bin/3d
      bin: standard
Per MPI rank memory allocation (min/avg/max) = 11.83 | 11.83 | 11.83 Mbytes
    PotEng         Fnorm     
WARNING: Too many warnings: 117 vs 100. All future warnings will be suppressed (src/thermo.cpp:478)
-1435.6004      481.69624    
Loop time of 2.92e-07 on 1 procs for 0 steps with 20 atoms

342.5% CPU use with 1 MPI tasks x no OpenMP threads

MPI task timing breakdown:
Section |  min time  |  avg time  |  max time  |%varavg| %total
---------------------------------------------------------------
Pair    | 0          | 0          | 0          |   0.0 |  0.00
Bond    | 0          | 0          | 0          |   0.0 |  0.00
Neigh   | 0          | 0          | 0          |   0.0 |  0.00
Comm    | 0          | 0          | 0          |   0.0 |  0.00
Output  | 0          | 0          | 0          |   0.0 |  0.00
Modify  | 0          | 0          | 0          |   0.0 |  0.00
Other   |            | 2.92e-07   |            |       |100.00

Nlocal:             20 ave          20 max          20 min
Histogram: 1 0 0 0 0 0 0 0 0 0
Nghost:              0 ave           0 max           0 min
Histogram: 1 0 0 0 0 0 0 0 0 0
Neighs:            190 ave         190 max         190 min
Histogram: 1 0 0 0 0 0 0 0 0 0
FullNghs:          380 ave         380 max         380 min
Histogram: 1 0 0 0 0 0 0 0 0 0

Total # of neighbors = 380
Ave neighs/atom = 19
Ave special neighs/atom = 0
Neighbor list builds = 0
Dangerous builds = 0
print "d3na: $(pe) $(fnorm) " append ener_0.dat screen no

clear
units        real
boundary     p p p
atom_style   full
read_data    ./data/traj/gibSEowCNAlAltraj-q0.data
Reading data file ...
  orthogonal box = (0 0 0) to (14.841 17.165 17.836)
  1 by 1 by 1 MPI processor grid
  reading atoms ...
  537 atoms
Finding 1-2 1-3 1-4 neighbors ...
  special bond factors lj:    0        0        0       
  special bond factors coul:  0        0        0       
     0 = max # of 1-2 neighbors
     0 = max # of 1-3 neighbors
     0 = max # of 1-4 neighbors
     1 = max # of special neighbors
  special bonds CPU = 0.000 seconds
  read_data CPU = 0.001 seconds

set type 1 charge  1.296
Setting atom values ...
  42 settings made for charge
set type 2 charge -0.898
Setting atom values ...
  207 settings made for charge
set type 3 charge  0.449
Setting atom values ...
  288 settings made for charge
set type 4 charge  1.000
Setting atom values ...
  0 settings made for charge

pair_style hybrid/overlay coul/long 8.5 sw lj/smooth/linear 5.0 gauss/cut 10.0 coord/gauss/cut 10.0
pair_coeff * * coul/long
pair_coeff * * coul/long
pair_coeff * * lj/smooth/linear 0 0 0
pair_coeff * * sw param_0.sw Al O H NULL
pair_coeff * * gauss/cut 0 0 1 0

pair_coeff 1 2 lj/smooth/linear 	  0.287433e-2   1.755116
pair_coeff 2 2 lj/smooth/linear 	  4.919300e-2   3.270000
pair_coeff 2 3 lj/smooth/linear 	  7.370236e-2   1.045332
pair_coeff 2 4 lj/smooth/linear 	  0.426214e-2   4.082864

pair_coeff 1 1 coord/gauss/cut 	  0.683561   2.685792   0.186946   5.044439   3.140677
pair_coeff 1 2 coord/gauss/cut 	 -7.688039   1.637367   0.222892   3.393892   1.697269
pair_coeff 2 3 gauss/cut 		 -0.474700   1.070000   0.075900   2.000000

kspace_style ewald 1.0e-5

thermo_style custom pe
thermo 1

fix 1 all qeq/point 1 8.5 1.0e-6 200 param_0.qeq

group counter empty
0 atoms in group counter
group todump subtract all counter
537 atoms in group todump

dump 3 todump custom 1 gibSEowCNAlAltraj_0.FF.frc id fx fy fz
dump_modify 3 sort id
rerun ./data/traj/gibSEowCNAlAltraj.dump dump x y z box yes
Ewald initialization ...
  using 12-bit tables for long-range coulomb (src/kspace.cpp:342)
  G vector (1/distance) = 0.36206005
  estimated absolute RMS force accuracy = 0.0033298422
  estimated relative force accuracy = 1.0027721e-05
  KSpace vectors: actual max1d max3d = 632 7 1687
                  kxmax kymax kzmax  = 6 7 7
Neighbor list info ...
  update: every = 1 steps, delay = 0 steps, check = yes
  max neighbors/atom: 2000, page size: 100000
  master list distance cutoff = 12
  ghost atom cutoff = 12
  binsize = 6, bins = 3 3 3
  6 neighbor lists, perpetual/occasional/extra = 6 0 0
  (1) pair coul/long, perpetual, half/full trim from (6)
      attributes: half, newton on, cut 10.5
      pair build: halffull/trim/newton
      stencil: none
      bin: none
  (2) pair sw, perpetual, skip trim from (6)
      attributes: full, newton on, cut 4.075813802629246
      pair build: skip/trim
      stencil: none
      bin: none
  (3) pair lj/smooth/linear, perpetual, trim from (1)
      attributes: half, newton on, cut 7
      pair build: trim
      stencil: none
      bin: none
  (4) pair gauss/cut, perpetual, trim from (3)
      attributes: half, newton on, cut 4
      pair build: trim
      stencil: none
      bin: none
  (5) pair coord/gauss/cut, perpetual, skip from (6)
      attributes: full, newton on
      pair build: skip
      stencil: none
      bin: none
  (6) fix qeq/point, perpetual
      attributes: full, newton on
      pair build: full/bin
      stencil: full/bin/3d
      bin: standard
Per MPI rank memory allocation (min/avg/max) = 29.93 | 29.93 | 29.93 Mbytes
    PotEng    
WARNING: Too many warnings: 121 vs 100. All future warnings will be suppressed (src/thermo.cpp:478)
-37300.38     
-37347.533    
-37295.536    
-37342.807    
-37281.034    
-37290.584    
-37365.551    
-37377.571    
-37368.788    
-37377.948    
-37349.669    
-37343.888    
-37468.076    
-37450.414    
-37396.921    
-37368.371    
-37360.171    
-37410.469    
-37449.873    
-37407.11     
Loop time of 0.358406 on 1 procs for 20 steps with 537 atoms


clear
units        real
boundary     f f f
atom_style   full
read_data    ./data/data/w-q0.data
Reading data file ...
  orthogonal box = (-34 -34 -34) to (34 34 34)
  1 by 1 by 1 MPI processor grid
  reading atoms ...
  3 atoms
Finding 1-2 1-3 1-4 neighbors ...
  special bond factors lj:    0        0        0       
  special bond factors coul:  0        0        0       
     0 = max # of 1-2 neighbors
     0 = max # of 1-3 neighbors
     0 = max # of 1-4 neighbors
     1 = max # of special neighbors
  special bonds CPU = 0.000 seconds
  read_data CPU = 0.001 seconds

set type 1 charge  1.296
Setting atom values ...
  0 settings made for charge
set type 2 charge -0.898
Setting atom values ...
  1 settings made for charge
set type 3 charge  0.449
Setting atom values ...
  2 settings made for charge
set type 4 charge  1.000
Setting atom values ...
  0 settings made for charge

pair_style hybrid/overlay coul/cut 15.0 sw lj/smooth/linear 5.0 gauss/cut 10.0 coord/gauss/cut 10.0
pair_coeff * * coul/cut
pair_coeff * * coul/cut
pair_coeff * * lj/smooth/linear 0 0 0
pair_coeff * * sw param_0.sw Al O H NULL
pair_coeff * * gauss/cut 0 0 1 0

pair_coeff 1 2 lj/smooth/linear 	  0.287433e-2   1.755116
pair_coeff 2 2 lj/smooth/linear 	  4.919300e-2   3.270000
pair_coeff 2 3 lj/smooth/linear 	  7.370236e-2   1.045332
pair_coeff 2 4 lj/smooth/linear 	  0.426214e-2   4.082864

pair_coeff 1 1 coord/gauss/cut 	  0.683561   2.685792   0.186946   5.044439   3.140677
pair_coeff 1 2 coord/gauss/cut 	 -7.688039   1.637367   0.222892   3.393892   1.697269
pair_coeff 2 3 gauss/cut 		 -0.474700   1.070000   0.075900   2.000000

kspace_style none

thermo_style custom pe fnorm
thermo 1

fix 1 all qeq/point 1 8.5 1.0e-6 200 param_0.qeq

group counter empty
0 atoms in group counter
group todump subtract all counter
3 atoms in group todump

compute 1 all property/atom q
dump 1 todump custom 1 w_0.q id c_1
dump_modify 1 sort id

run 0
Neighbor list info ...
  update: every = 1 steps, delay = 0 steps, check = yes
  max neighbors/atom: 2000, page size: 100000
  master list distance cutoff = 17
  ghost atom cutoff = 17
  binsize = 8.5, bins = 8 8 8
  6 neighbor lists, perpetual/occasional/extra = 6 0 0
  (1) pair coul/cut, perpetual, half/full from (6)
      attributes: half, newton on
      pair build: halffull/newton
      stencil: none
      bin: none
  (2) pair sw, perpetual, skip trim from (6)
      attributes: full, newton on, cut 4.075813802629246
      pair build: skip/trim
      stencil: none
      bin: none
  (3) pair lj/smooth/linear, perpetual, trim from (1)
      attributes: half, newton on, cut 7
      pair build: trim
      stencil: none
      bin: none
  (4) pair gauss/cut, perpetual, trim from (3)
      attributes: half, newton on, cut 4
      pair build: trim
      stencil: none
      bin: none
  (5) pair coord/gauss/cut, perpetual, skip trim from (6)
      attributes: full, newton on, cut 12
      pair build: skip/trim
      stencil: none
      bin: none
  (6) fix qeq/point, perpetual
      attributes: full, newton on
      pair build: full/bin
      stencil: full/bin/3d
      bin: standard
Per MPI rank memory allocation (min/avg/max) = 11.83 | 11.83 | 11.83 Mbytes
    PotEng         Fnorm     
WARNING: Too many warnings: 122 vs 100. All future warnings will be suppressed (src/thermo.cpp:478)
-141.62569      93.804484    
Loop time of 3.33e-07 on 1 procs for 0 steps with 3 atoms

0.0% CPU use with 1 MPI tasks x no OpenMP threads

MPI task timing breakdown:
Section |  min time  |  avg time  |  max time  |%varavg| %total
---------------------------------------------------------------
Pair    | 0          | 0          | 0          |   0.0 |  0.00
Bond    | 0          | 0          | 0          |   0.0 |  0.00
Neigh   | 0          | 0          | 0          |   0.0 |  0.00
Comm    | 0          | 0          | 0          |   0.0 |  0.00
Output  | 0          | 0          | 0          |   0.0 |  0.00
Modify  | 0          | 0          | 0          |   0.0 |  0.00
Other   |            | 3.33e-07   |            |       |100.00

Nlocal:              3 ave           3 max           3 min
Histogram: 1 0 0 0 0 0 0 0 0 0
Nghost:              0 ave           0 max           0 min
Histogram: 1 0 0 0 0 0 0 0 0 0
Neighs:              3 ave           3 max           3 min
Histogram: 1 0 0 0 0 0 0 0 0 0
FullNghs:            6 ave           6 max           6 min
Histogram: 1 0 0 0 0 0 0 0 0 0

Total # of neighbors = 6
Ave neighs/atom = 2
Ave special neighs/atom = 0
Neighbor list builds = 0
Dangerous builds = 0
print "w: $(pe) $(fnorm) " append ener_0.dat screen no

clear
units        real
boundary     p p p
atom_style   full
read_data    ./data/data/gib001top-q0.data
Reading data file ...
  orthogonal box = (0 0 0) to (18 8.74 10.076)
  1 by 1 by 1 MPI processor grid
  reading atoms ...
  56 atoms
Finding 1-2 1-3 1-4 neighbors ...
  special bond factors lj:    0        0        0       
  special bond factors coul:  0        0        0       
     0 = max # of 1-2 neighbors
     0 = max # of 1-3 neighbors
     0 = max # of 1-4 neighbors
     1 = max # of special neighbors
  special bonds CPU = 0.000 seconds
  read_data CPU = 0.001 seconds

set type 1 charge  1.296
Setting atom values ...
  8 settings made for charge
set type 2 charge -0.898
Setting atom values ...
  24 settings made for charge
set type 3 charge  0.449
Setting atom values ...
  24 settings made for charge
set type 4 charge  1.000
Setting atom values ...
  0 settings made for charge

pair_style hybrid/overlay coul/long 8.5 sw lj/smooth/linear 5.0 gauss/cut 10.0 coord/gauss/cut 10.0
pair_coeff * * coul/long
pair_coeff * * coul/long
pair_coeff * * lj/smooth/linear 0 0 0
pair_coeff * * sw param_0.sw Al O H NULL
pair_coeff * * gauss/cut 0 0 1 0

pair_coeff 1 2 lj/smooth/linear 	  0.287433e-2   1.755116
pair_coeff 2 2 lj/smooth/linear 	  4.919300e-2   3.270000
pair_coeff 2 3 lj/smooth/linear 	  7.370236e-2   1.045332
pair_coeff 2 4 lj/smooth/linear 	  0.426214e-2   4.082864

pair_coeff 1 1 coord/gauss/cut 	  0.683561   2.685792   0.186946   5.044439   3.140677
pair_coeff 1 2 coord/gauss/cut 	 -7.688039   1.637367   0.222892   3.393892   1.697269
pair_coeff 2 3 gauss/cut 		 -0.474700   1.070000   0.075900   2.000000

kspace_style ewald 1.0e-5

thermo_style custom pe fnorm
thermo 1

fix 1 all qeq/point 1 8.5 1.0e-6 200 param_0.qeq

group counter empty
0 atoms in group counter
group todump subtract all counter
56 atoms in group todump

run 0
Ewald initialization ...
  using 12-bit tables for long-range coulomb (src/kspace.cpp:342)
  G vector (1/distance) = 0.35425092
  estimated absolute RMS force accuracy = 0.0036050471
  estimated relative force accuracy = 1.0856492e-05
  KSpace vectors: actual max1d max3d = 292 6 1098
                  kxmax kymax kzmax  = 6 4 4
Neighbor list info ...
  update: every = 1 steps, delay = 0 steps, check = yes
  max neighbors/atom: 2000, page size: 100000
  master list distance cutoff = 12
  ghost atom cutoff = 12
  binsize = 6, bins = 3 2 2
  6 neighbor lists, perpetual/occasional/extra = 6 0 0
  (1) pair coul/long, perpetual, half/full trim from (6)
      attributes: half, newton on, cut 10.5
      pair build: halffull/trim/newton
      stencil: none
      bin: none
  (2) pair sw, perpetual, skip trim from (6)
      attributes: full, newton on, cut 4.075813802629246
      pair build: skip/trim
      stencil: none
      bin: none
  (3) pair lj/smooth/linear, perpetual, trim from (1)
      attributes: half, newton on, cut 7
      pair build: trim
      stencil: none
      bin: none
  (4) pair gauss/cut, perpetual, trim from (3)
      attributes: half, newton on, cut 4
      pair build: trim
      stencil: none
      bin: none
  (5) pair coord/gauss/cut, perpetual, skip from (6)
      attributes: full, newton on
      pair build: skip
      stencil: none
      bin: none
  (6) fix qeq/point, perpetual
      attributes: full, newton on
      pair build: full/bin
      stencil: full/bin/3d
      bin: standard
Per MPI rank memory allocation (min/avg/max) = 22.33 | 22.33 | 22.33 Mbytes
    PotEng         Fnorm     
WARNING: Too many warnings: 125 vs 100. All future warnings will be suppressed (src/thermo.cpp:478)
-4935.4635      303.11343    
Loop time of 2.91e-07 on 1 procs for 0 steps with 56 atoms

0.0% CPU use with 1 MPI tasks x no OpenMP threads

MPI task timing breakdown:
Section |  min time  |  avg time  |  max time  |%varavg| %total
---------------------------------------------------------------
Pair    | 0          | 0          | 0          |   0.0 |  0.00
Bond    | 0          | 0          | 0          |   0.0 |  0.00
Kspace  | 0          | 0          | 0          |   0.0 |  0.00
Neigh   | 0          | 0          | 0          |   0.0 |  0.00
Comm    | 0          | 0          | 0          |   0.0 |  0.00
Output  | 0          | 0          | 0          |   0.0 |  0.00
Modify  | 0          | 0          | 0          |   0.0 |  0.00
Other   |            | 2.91e-07   |            |       |100.00

Nlocal:             56 ave          56 max          56 min
Histogram: 1 0 0 0 0 0 0 0 0 0
Nghost:           1673 ave        1673 max        1673 min
Histogram: 1 0 0 0 0 0 0 0 0 0
Neighs:           6012 ave        6012 max        6012 min
Histogram: 1 0 0 0 0 0 0 0 0 0
FullNghs:        12542 ave       12542 max       12542 min
Histogram: 1 0 0 0 0 0 0 0 0 0

Total # of neighbors = 12542
Ave neighs/atom = 223.96429
Ave special neighs/atom = 0
Neighbor list builds = 0
Dangerous builds = 0
print "gib001top: $(pe) $(fnorm) " append ener_0.dat screen no

clear
Total wall time: 0:00:02
